
2304 atoms

2 atom types

-29.094147 79.904364 xlo xhi
-34.161392 74.872029 ylo yhi
0.000000 170.303001 zlo zhi

Masses

1 28.0855
2 15.9994

Atoms

1       1 1 0.0 29.828319 61.572599 14.567412
2       1 1 0.0 31.833243 63.562002 17.665475
3       1 1 0.0 39.126037 59.076760 17.736130
4       1 1 0.0 35.876012 62.017332 17.426383
5       1 2 0.0 38.046861 59.592493 21.208907
6       1 2 0.0 34.266570 62.370175 15.717377
7       1 2 0.0 31.591844 60.445038 15.898365
8       1 2 0.0 37.136204 60.506062 17.003608
9       1 2 0.0 37.412578 62.293254 19.421881
10      1 2 0.0 29.865051 61.400633 12.760296
11      1 2 0.0 34.321935 62.753121 18.055736
12      1 2 0.0 30.290881 62.849940 15.712790
13      1 1 0.0 40.392146 59.011378 21.665992
14      1 1 0.0 42.845164 60.411429 24.764055
15      1 1 0.0 48.721868 54.185146 24.834710
16      1 1 0.0 46.347643 57.869259 24.524963
17      1 2 0.0 47.813786 54.963600 28.307487
18      1 2 0.0 44.885183 58.628215 22.815957
19      1 2 0.0 41.802074 57.464278 22.996945
20      1 2 0.0 47.171818 56.082429 24.102188
21      1 2 0.0 47.903122 57.736404 26.520461
22      1 2 0.0 40.382928 58.835774 19.858876
23      1 2 0.0 45.038160 58.983617 25.154316
24      1 2 0.0 41.170751 60.124633 22.811370
25      1 1 0.0 49.927489 53.792995 28.764572
26      1 1 0.0 52.660057 54.507498 31.862635
27      1 1 0.0 56.716886 46.967977 31.933290
28      1 1 0.0 55.381593 51.142497 31.623543
29      1 2 0.0 56.042293 47.955664 35.406067
30      1 2 0.0 54.166600 52.255419 29.914537
31      1 2 0.0 50.886946 51.932656 30.095525
32      1 2 0.0 55.713122 49.202881 31.200768
33      1 2 0.0 56.849110 50.609994 33.619041
34      1 2 0.0 49.872955 53.625819 26.957456
35      1 2 0.0 54.406678 52.558859 32.252896
36      1 2 0.0 50.968640 54.665674 29.909950
37      1 1 0.0 57.779184 46.276001 35.863152
38      1 1 0.0 60.603548 46.255864 38.961215
39      1 1 0.0 62.561761 37.921138 39.031870
40      1 1 0.0 62.357146 42.299239 38.722123
41      1 2 0.0 62.167007 39.050196 42.504647
42      1 2 0.0 61.473102 43.689659 37.013117
43      1 2 0.0 58.222244 44.230246 37.194105
44      1 2 0.0 62.173250 40.340105 38.299348
45      1 2 0.0 63.635870 41.403676 40.717621
46      1 2 0.0 57.683080 46.128740 34.056036
47      1 2 0.0 61.783784 43.920287 39.351476
48      1 2 0.0 59.011343 46.848142 37.008530
49      1 1 0.0 63.407745 36.976883 42.961732
50      1 1 0.0 66.129847 36.223489 46.059795
51      1 1 0.0 65.854896 27.666232 46.130450
52      1 1 0.0 66.795019 31.947096 45.820703
53      1 2 0.0 65.767105 28.859083 49.603227
54      1 2 0.0 66.302665 33.519479 44.111697
55      1 2 0.0 63.303967 34.886274 44.292685
56      1 2 0.0 66.108333 30.103055 45.397928
57      1 2 0.0 67.797088 30.750006 47.816201
58      1 2 0.0 63.276675 36.859655 41.154616
59      1 2 0.0 66.662605 33.661449 46.450056
60      1 2 0.0 64.746253 37.209175 44.107110
61      1 1 0.0 66.426439 26.534575 50.060312
62      1 1 0.0 68.859245 25.099689 53.158375
63      1 1 0.0 66.370023 16.907863 53.229030
64      1 1 0.0 68.390287 20.797356 52.919283
65      1 2 0.0 66.595226 18.082549 56.701807
66      1 2 0.0 68.323453 22.443666 51.210277
67      1 2 0.0 65.782954 24.542756 51.391265
68      1 2 0.0 67.247994 19.195111 52.496508
69      1 2 0.0 69.046851 19.380991 54.914781
70      1 2 0.0 66.269409 26.455435 48.253196
71      1 2 0.0 68.707921 22.487223 53.548636
72      1 2 0.0 67.779327 26.411059 51.205690
73      1 1 0.0 66.627854 15.666561 57.158892
74      1 1 0.0 68.604208 13.648773 60.256955
75      1 1 0.0 64.071747 6.385231 60.327610
76      1 1 0.0 67.033342 9.616110 60.017863
77      1 2 0.0 64.594470 7.461039 63.800387
78      1 2 0.0 67.396619 11.223229 58.308857
79      1 2 0.0 65.488875 13.910389 58.489845
80      1 2 0.0 65.513927 8.365749 59.595088
81      1 2 0.0 67.299289 8.077787 62.013361
82      1 2 0.0 66.455653 15.630946 55.351776
83      1 2 0.0 67.779198 11.165381 60.647216
84      1 2 0.0 67.902167 15.195722 58.304270
85      1 1 0.0 63.998152 5.119573 64.257472
86      1 1 0.0 65.382259 2.657523 67.355535
87      1 1 0.0 59.117980 -3.178662 67.426190
88      1 1 0.0 62.817419 -0.828389 67.116443
89      1 2 0.0 59.902309 -2.275650 70.898967
90      1 2 0.0 63.585847 0.629116 65.407437
91      1 2 0.0 62.441937 3.719712 65.588425
92      1 2 0.0 61.025280 -1.640954 66.693668
93      1 2 0.0 62.674475 -2.382974 69.111941
94      1 2 0.0 63.822611 5.129930 62.450356
95      1 2 0.0 63.940250 0.473837 67.745796
96      1 2 0.0 65.106332 4.333762 65.402850
97      1 1 0.0 58.718016 -4.381714 71.356052
98      1 1 0.0 59.414776 -7.118860 74.454115
99      1 1 0.0 51.849094 -11.126689 74.524770
100     1 1 0.0 56.032189 -9.818507 74.215023
101     1 2 0.0 52.841137 -10.458518 77.997547
102     1 2 0.0 57.152970 -8.610761 72.506017
103     1 2 0.0 56.851491 -5.329081 72.687005
104     1 2 0.0 54.090463 -10.137445 73.792248
105     1 2 0.0 55.490177 -11.282539 76.210521
106     1 2 0.0 58.551197 -4.326097 69.548936
107     1 2 0.0 57.454846 -8.852801 74.844376
108     1 2 0.0 59.583921 -5.428505 72.501430
109     1 1 0.0 51.150240 -12.184475 78.454632
110     1 1 0.0 51.111780 -15.008650 81.552695
111     1 1 0.0 42.764526 -16.912748 81.623350
112     1 1 0.0 47.143861 -16.736541 81.313603
113     1 2 0.0 43.896121 -16.525327 85.096127
114     1 2 0.0 48.539987 -15.861536 79.604597
115     1 2 0.0 49.101654 -12.614254 79.785585
116     1 2 0.0 45.185961 -16.539939 80.890828
117     1 2 0.0 46.240021 -18.009428 83.309101
118     1 2 0.0 51.003606 -12.087418 76.647516
119     1 2 0.0 48.768595 -16.173708 81.942956
120     1 2 0.0 51.714376 -13.420321 79.600010
121     1 1 0.0 41.814801 -17.752588 85.553212
122     1 1 0.0 41.043763 -20.469744 88.651275
123     1 1 0.0 32.488470 -20.139283 88.721930
124     1 1 0.0 36.763145 -21.107158 88.412183
125     1 2 0.0 33.681866 -20.059232 92.194707
126     1 2 0.0 38.338689 -20.625016 86.703177
127     1 2 0.0 39.724910 -17.635249 86.884165
128     1 2 0.0 34.923598 -20.408524 87.989408
129     1 2 0.0 35.559579 -22.101440 90.407681
130     1 2 0.0 41.698426 -17.620760 83.746096
131     1 2 0.0 38.478321 -20.985870 89.041536
132     1 2 0.0 42.038405 -19.092574 86.698590
133     1 1 0.0 31.353129 -20.703471 92.651792
134     1 1 0.0 29.902490 -23.126917 95.749855
135     1 1 0.0 21.726985 -20.584601 95.820510
136     1 1 0.0 25.603290 -22.630057 95.510763
137     1 2 0.0 22.900185 -20.817420 99.293287
138     1 2 0.0 27.249999 -22.573905 93.801757
139     1 2 0.0 29.365527 -20.047078 93.982745
140     1 2 0.0 24.008490 -21.477393 95.087988
141     1 2 0.0 24.182695 -23.277418 97.506261
142     1 2 0.0 31.275009 -20.545931 90.844676
143     1 2 0.0 27.291061 -22.958647 96.140116
144     1 2 0.0 31.220838 -22.055530 93.797170
145     1 1 0.0 20.484037 -20.834374 99.750372
146     1 1 0.0 18.453470 -22.797595 102.848435
147     1 1 0.0 11.219486 -18.218105 102.919090
148     1 1 0.0 14.431083 -21.200600 102.609343
149     1 2 0.0 12.291880 -18.747798 106.391867
150     1 2 0.0 16.035811 -21.574296 100.900337
151     1 2 0.0 18.735291 -19.684026 101.081325
152     1 2 0.0 13.190606 -19.673105 102.186568
153     1 2 0.0 12.891066 -21.456561 104.604841
154     1 2 0.0 20.449540 -20.661945 97.943256
155     1 2 0.0 15.975482 -21.956491 103.238696
156     1 2 0.0 20.004940 -22.105605 100.895750
157     1 1 0.0 9.954332 -18.136301 106.848952
158     1 1 0.0 7.483354 -19.504406 109.947015
159     1 1 0.0 1.687932 -13.202396 110.017670
160     1 1 0.0 4.014155 -16.917004 109.707923
161     1 2 0.0 2.585837 -13.992566 113.490447
162     1 2 0.0 5.466644 -17.694872 107.998917
163     1 2 0.0 8.564596 -16.571037 108.179905
164     1 2 0.0 3.213234 -15.119631 109.285148
165     1 2 0.0 2.460531 -16.763978 111.703421
166     1 2 0.0 9.965827 -17.960831 105.041836
167     1 2 0.0 5.309069 -18.048260 110.337276
168     1 2 0.0 9.161348 -19.239360 107.994330
169     1 1 0.0 0.487500 -12.794634 113.947532
170     1 1 0.0 -2.254108 -13.473622 117.045595
171     1 1 0.0 -6.212769 -5.882097 117.116250
172     1 1 0.0 -4.931753 -10.073592 116.806503
173     1 2 0.0 -5.551048 -6.878455 120.589027
174     1 2 0.0 -3.731303 -11.202185 115.097497
175     1 2 0.0 -0.447737 -10.922003 115.278485
176     1 2 0.0 -5.238087 -8.129837 116.383728
177     1 2 0.0 -6.392238 -9.522092 118.802001
178     1 2 0.0 0.544199 -12.628180 112.140416
179     1 2 0.0 -3.975298 -11.502484 117.435856
180     1 2 0.0 -0.564886 -13.653730 115.092910
181     1 1 0.0 -7.265998 -5.176396 121.046112
182     1 1 0.0 -10.089864 -5.119614 124.144175
183     1 1 0.0 -11.939768 3.239818 124.214830
184     1 1 0.0 -11.791977 -1.140568 123.905083
185     1 2 0.0 -11.559697 2.105733 127.687607
186     1 2 0.0 -10.926048 -2.542342 122.196077
187     1 2 0.0 -7.682478 -3.125064 122.377065
188     1 2 0.0 -11.582676 0.816014 123.482308
189     1 2 0.0 -13.058972 -0.228489 125.900581
190     1 2 0.0 -7.167992 -5.030394 119.238996
191     1 2 0.0 -11.239696 -2.768920 124.534436
192     1 2 0.0 -8.505478 -5.732502 122.191490
193     1 1 0.0 -12.773428 4.194971 128.144692
194     1 1 0.0 -15.485525 4.983621 131.242755
195     1 1 0.0 -15.099567 13.536591 131.313410
196     1 1 0.0 -16.095154 9.268285 131.003663
197     1 2 0.0 -15.027260 12.342700 134.786187
198     1 2 0.0 -15.623244 7.689645 129.294657
199     1 2 0.0 -12.642534 6.284057 129.475645
200     1 2 0.0 -15.384600 11.103261 130.580888
201     1 2 0.0 -17.081607 10.478276 132.999161
202     1 2 0.0 -12.640848 4.310488 126.337576
203     1 2 0.0 -15.984996 7.552358 131.633016
204     1 2 0.0 -14.114837 3.980065 129.290070
205     1 1 0.0 -15.656377 14.675567 135.243272
206     1 1 0.0 -18.070361 16.141899 138.341335
207     1 1 0.0 -15.475058 24.300737 138.411990
208     1 1 0.0 -17.545619 20.437785 138.102243
209     1 2 0.0 -15.715484 23.129073 141.884767
210     1 2 0.0 -17.500151 18.790746 136.393237
211     1 2 0.0 -14.987103 16.658869 136.574225
212     1 2 0.0 -16.382633 22.025074 137.679468
213     1 2 0.0 -18.183750 21.862549 140.097741
214     1 2 0.0 -15.498334 14.752664 133.436156
215     1 2 0.0 -17.885152 18.752181 138.731596
216     1 2 0.0 -17.007549 14.816628 136.388650
217     1 1 0.0 -15.716761 25.545280 142.341852
218     1 1 0.0 -17.666767 27.588542 145.439915
219     1 1 0.0 -13.040442 34.792663 145.510570
220     1 1 0.0 -16.043710 31.600483 145.200823
221     1 2 0.0 -13.577081 33.723728 148.983347
222     1 2 0.0 -16.427809 29.998213 143.491817
223     1 2 0.0 -14.555092 27.286526 143.672805
224     1 2 0.0 -14.508199 32.831024 144.778048
225     1 2 0.0 -16.289674 33.142128 147.196321
226     1 2 0.0 -15.544113 25.578658 140.534736
227     1 2 0.0 -16.809605 30.061020 145.830176
228     1 2 0.0 -16.984858 26.032614 143.487230
229     1 1 0.0 -12.950431 36.057259 149.440432
230     1 1 0.0 -14.302477 38.537061 152.538495
231     1 1 0.0 -7.963000 44.291475 152.609150
232     1 1 0.0 -11.692622 41.989400 152.299403
233     1 2 0.0 -8.758980 43.398716 156.081927
234     1 2 0.0 -12.479897 40.541989 150.590397
235     1 2 0.0 -11.376184 37.436811 150.771385
236     1 2 0.0 -9.890091 42.778644 151.876628
237     1 2 0.0 -11.529519 43.542000 154.294901
238     1 2 0.0 -12.775040 36.044626 147.633316
239     1 2 0.0 -12.832255 40.701853 152.928756
240     1 2 0.0 -14.048322 36.857383 150.585810
241     1 1 0.0 -7.547459 45.489236 156.539012
242     1 1 0.0 -8.208646 48.235192 159.637075
243     1 1 0.0 -0.591598 52.144518 159.707730
244     1 1 0.0 -4.791315 50.890722 159.397983
245     1 2 0.0 -1.592228 51.489275 163.180507
246     1 2 0.0 -5.927673 49.697620 157.688977
247     1 2 0.0 -5.668800 46.412305 157.869965
248     1 2 0.0 -2.845614 51.184440 158.975208
249     1 2 0.0 -4.230352 52.347598 161.393481
250     1 2 0.0 -7.381376 45.431459 154.731896
251     1 2 0.0 -6.226383 49.943557 160.027336
252     1 2 0.0 -8.399710 46.547174 157.684390
253     1 1 0.0 0.120922 53.193147 163.637592
254     1 1 0.0 0.196023 56.016585 166.735655
255     1 1 0.0 8.567280 57.812216 166.806310
256     1 1 0.0 4.186027 57.692847 166.496563
257     1 2 0.0 7.430753 57.439510 0.613925
258     1 2 0.0 2.778665 56.836030 164.787557
259     1 2 0.0 2.174912 53.596309 164.968545
260     1 2 0.0 6.141211 57.470857 166.073788
261     1 2 0.0 5.106307 58.953898 168.492061
262     1 2 0.0 0.266284 53.094196 161.830476
263     1 2 0.0 2.554127 57.151142 167.125916
264     1 2 0.0 -0.427131 54.436208 164.782970
265     1 1 0.0 9.527822 58.639662 1.071010
266     1 1 0.0 10.334051 61.346586 4.169073
267     1 1 0.0 18.884336 60.905146 4.239728
268     1 1 0.0 14.622579 61.928404 3.929981
269     1 2 0.0 17.690002 60.840586 7.712505
270     1 2 0.0 13.040911 61.466745 2.220975
271     1 2 0.0 11.616015 58.495217 2.401963
272     1 2 0.0 16.452907 61.205960 3.507206
273     1 2 0.0 15.838945 62.906986 5.925479
274     1 2 0.0 9.642477 58.506336 168.929056
275     1 2 0.0 12.905974 61.829381 4.559334
276     1 2 0.0 9.321623 59.982437 2.216388
277     1 1 0.0 20.026901 61.454555 8.169590
278     1 1 0.0 21.508863 63.858975 11.267653
279     1 1 0.0 29.650693 61.210794 11.338308
280     1 1 0.0 25.801254 63.306373 11.028561
281     1 2 0.0 28.480612 61.458816 14.811085
282     1 2 0.0 24.153955 63.271592 9.319555
283     1 2 0.0 22.005820 60.772428 9.500543
284     1 2 0.0 27.380965 62.133114 10.605786
285     1 2 0.0 27.230129 63.935248 13.024059
286     1 2 0.0 20.102971 61.296015 6.362474
287     1 2 0.0 24.117889 63.656835 11.657914
288     1 2 0.0 20.176725 62.804784 9.314968
289     1 1 0.0 29.229537 57.123685 15.323186
290     1 1 0.0 32.136510 58.971515 16.636488
291     1 1 0.0 37.299298 55.594401 19.267768
292     1 1 0.0 35.947035 58.023727 16.430584
293     1 2 0.0 36.422031 55.204337 22.022819
294     1 2 0.0 34.839805 58.693956 14.299564
295     1 2 0.0 30.273058 56.008405 17.416079
296     1 2 0.0 36.169790 56.733948 17.462243
297     1 2 0.0 38.081947 58.230732 17.270730
298     1 2 0.0 29.123049 57.300546 13.859434
299     1 2 0.0 34.402113 58.366565 17.086367
300     1 2 0.0 30.335842 58.348661 15.381139
301     1 1 0.0 38.657825 54.870906 22.421766
302     1 1 0.0 41.945114 55.899838 23.735068
303     1 1 0.0 46.052948 51.297125 26.366348
304     1 1 0.0 45.378435 53.994396 23.529164
305     1 2 0.0 45.104456 51.148431 29.121399
306     1 2 0.0 44.483411 54.929328 21.398144
307     1 2 0.0 39.375676 53.522768 24.514659
308     1 2 0.0 45.258370 52.691041 24.560823
309     1 2 0.0 47.493795 53.639504 24.369310
310     1 2 0.0 38.600955 55.069363 20.958014
311     1 2 0.0 43.975678 54.726924 24.184947
312     1 2 0.0 40.044450 55.766310 22.479719
313     1 1 0.0 47.176793 50.245453 29.520346
314     1 1 0.0 50.618531 50.384792 30.833648
315     1 1 0.0 53.389165 44.872727 33.464928
316     1 1 0.0 53.438746 47.652616 30.627744
317     1 2 0.0 52.434618 44.975619 36.219979
318     1 2 0.0 52.817425 48.788012 28.496724
319     1 2 0.0 47.519651 48.757087 31.613239
320     1 2 0.0 52.984113 46.425237 31.659403
321     1 2 0.0 55.389211 46.760211 31.467890
322     1 2 0.0 47.173449 50.451871 28.056594
323     1 2 0.0 52.274539 48.724503 31.283527
324     1 2 0.0 48.748464 50.749764 29.578299
325     1 1 0.0 54.201110 43.565139 36.618926
326     1 1 0.0 57.560817 42.805309 37.932228
327     1 1 0.0 58.803884 36.762623 40.563508
328     1 1 0.0 59.574153 39.434125 37.726324
329     1 2 0.0 57.908868 37.110032 43.318559
330     1 2 0.0 59.269225 40.691974 35.595304
331     1 2 0.0 54.145418 42.038808 38.711819
332     1 2 0.0 58.816187 38.367055 38.757983
333     1 2 0.0 61.225707 38.065524 38.566470
334     1 2 0.0 54.251522 43.765334 35.155174
335     1 2 0.0 58.728485 40.771723 38.382107
336     1 2 0.0 55.849839 43.643704 36.676879
337     1 1 0.0 59.248141 35.288961 43.717506
338     1 1 0.0 62.294975 33.682170 45.030808
339     1 1 0.0 61.925064 27.524051 47.662088
340     1 1 0.0 63.363096 29.903610 44.824904
341     1 2 0.0 61.151075 28.092107 50.417139
342     1 2 0.0 63.395513 31.197485 42.693884
343     1 2 0.0 58.797725 33.829540 45.810399
344     1 2 0.0 62.353878 29.070167 45.856563
345     1 2 0.0 64.602263 28.152849 45.665050
346     1 2 0.0 59.348844 35.469179 42.253754
347     1 2 0.0 62.894074 31.415013 45.480687
348     1 2 0.0 60.860644 34.936383 43.775459
349     1 1 0.0 61.971108 25.985570 50.816086
350     1 1 0.0 64.495723 23.642220 52.129388
351     1 1 0.0 62.538250 17.791786 54.760668
352     1 1 0.0 64.545240 19.715905 51.923484
353     1 2 0.0 61.938468 18.541458 57.515719
354     1 2 0.0 64.912774 20.956906 49.792464
355     1 2 0.0 61.156915 24.693333 52.908979
356     1 2 0.0 63.354111 19.173353 52.955143
357     1 2 0.0 65.286877 17.703276 52.763630
358     1 2 0.0 62.115183 26.133428 49.352334
359     1 2 0.0 64.485089 21.297266 52.579267
360     1 2 0.0 63.436592 25.226075 50.874039
361     1 1 0.0 62.182918 16.294194 57.914666
362     1 1 0.0 64.011850 13.375294 59.227968
363     1 1 0.0 60.601312 8.234525 61.859248
364     1 1 0.0 63.039361 9.570998 59.022064
365     1 2 0.0 60.216948 9.114304 64.614299
366     1 2 0.0 63.716758 10.673856 56.891044
367     1 2 0.0 61.060892 15.257931 60.007559
368     1 2 0.0 61.748163 9.356616 60.053723
369     1 2 0.0 63.232510 7.434788 59.862210
370     1 2 0.0 62.360466 16.399532 56.450914
371     1 2 0.0 63.392214 11.113663 59.677847
372     1 2 0.0 63.400691 15.179965 57.972619
373     1 1 0.0 59.869018 6.880720 65.013246
374     1 1 0.0 60.876602 3.586825 66.326548
375     1 1 0.0 56.247335 -0.491062 68.957828
376     1 1 0.0 58.948926 0.165938 66.120644
377     1 2 0.0 56.104798 0.458375 71.712879
378     1 2 0.0 59.889644 1.054878 63.989624
379     1 2 0.0 58.516251 6.171630 67.106139
380     1 2 0.0 57.646377 0.294456 67.152303
381     1 2 0.0 58.580317 -1.947075 66.960790
382     1 2 0.0 60.067840 6.936301 63.549494
383     1 2 0.0 59.690539 1.563912 66.776427
384     1 2 0.0 60.755408 5.488315 65.071199
385     1 1 0.0 55.188394 -1.608060 72.111826
386     1 1 0.0 55.305401 -5.050629 73.425128
387     1 1 0.0 49.775477 -7.785445 76.056408
388     1 1 0.0 52.554986 -7.853060 73.219224
389     1 2 0.0 49.884560 -6.831585 78.811459
390     1 2 0.0 53.694389 -7.239118 71.088204
391     1 2 0.0 53.697835 -1.941255 74.204719
392     1 2 0.0 51.330583 -7.390473 74.250883
393     1 2 0.0 51.649946 -9.797694 74.059370
394     1 2 0.0 55.394829 -1.606056 70.648074
395     1 2 0.0 53.634403 -6.695831 73.875007
396     1 2 0.0 55.682498 -3.182970 72.169779
397     1 1 0.0 48.462649 -8.588890 79.210406
398     1 1 0.0 47.681038 -11.943596 80.523708
399     1 1 0.0 41.630414 -13.147434 83.154988
400     1 1 0.0 44.296863 -13.935019 80.317804
401     1 2 0.0 41.983623 -12.254690 85.910039
402     1 2 0.0 45.556664 -13.638258 78.186784
403     1 2 0.0 46.936712 -8.523296 81.303299
404     1 2 0.0 43.234733 -13.170146 81.349463
405     1 2 0.0 42.917576 -15.577659 81.157950
406     1 2 0.0 48.662513 -8.640599 77.746654
407     1 2 0.0 45.639919 -13.098047 80.973587
408     1 2 0.0 48.530516 -10.238093 79.268359
409     1 1 0.0 40.153902 -13.582121 86.308986
410     1 1 0.0 38.527378 -16.618466 87.622288
411     1 1 0.0 32.371788 -16.208610 90.253568
412     1 1 0.0 34.741967 -17.662051 87.416384
413     1 2 0.0 32.944853 -15.438323 93.008619
414     1 2 0.0 36.035605 -17.702861 85.285364
415     1 2 0.0 38.697433 -13.122245 88.401879
416     1 2 0.0 33.915089 -16.647446 88.448043
417     1 2 0.0 32.983203 -18.889833 88.256530
418     1 2 0.0 40.333462 -13.683991 84.845234
419     1 2 0.0 36.256381 -17.202843 88.072167
420     1 2 0.0 39.790870 -15.192303 86.366939
421     1 1 0.0 30.833041 -16.244672 93.407566
422     1 1 0.0 28.473360 -18.754031 94.720868
423     1 1 0.0 22.635749 -16.758644 97.352148
424     1 1 0.0 24.546807 -18.778075 94.514964
425     1 2 0.0 23.389297 -16.163738 100.107199
426     1 2 0.0 25.785397 -19.153652 92.383944
427     1 2 0.0 29.546113 -15.422113 95.500459
428     1 2 0.0 24.011994 -17.583451 95.546623
429     1 2 0.0 22.529409 -19.506638 95.355110
430     1 2 0.0 30.979960 -16.389704 91.943814
431     1 2 0.0 26.128525 -18.728184 95.170747
432     1 2 0.0 30.064053 -17.705198 93.465519
433     1 1 0.0 21.140495 -16.393603 100.506146
434     1 1 0.0 18.209790 -18.203559 101.819448
435     1 1 0.0 13.091256 -14.759742 104.450728
436     1 1 0.0 14.411883 -17.206409 101.613544
437     1 2 0.0 13.973510 -14.381093 107.205779
438     1 2 0.0 15.510324 -17.890948 99.482524
439     1 2 0.0 20.111532 -15.264877 102.599039
440     1 2 0.0 14.205883 -15.913849 102.645203
441     1 2 0.0 12.274465 -17.385696 102.453690
442     1 2 0.0 21.244678 -16.571831 99.042394
443     1 2 0.0 15.952227 -17.569263 102.269327
444     1 2 0.0 20.018388 -17.604122 100.564099
445     1 1 0.0 11.742230 -14.018680 107.604726
446     1 1 0.0 8.441867 -15.004873 108.918028
447     1 1 0.0 4.394100 -10.349247 111.549308
448     1 1 0.0 5.033559 -13.055043 108.712124
449     1 2 0.0 5.344442 -10.212872 114.304359
450     1 2 0.0 5.916377 -14.001509 106.581104
451     1 2 0.0 11.041932 -12.661341 109.697619
452     1 2 0.0 5.170525 -11.753356 109.743783
453     1 2 0.0 2.922981 -12.672734 109.552270
454     1 2 0.0 11.796520 -14.217858 106.140974
455     1 2 0.0 6.426693 -13.805710 109.367907
456     1 2 0.0 10.344104 -14.896017 107.662679
457     1 1 0.0 3.283995 -9.283082 114.703306
458     1 1 0.0 -0.159261 -9.377751 116.016608
459     1 1 0.0 -2.858142 -3.830201 118.647888
460     1 1 0.0 -2.943789 -6.609213 115.810704
461     1 2 0.0 -1.905010 -3.945471 121.402939
462     1 2 0.0 -2.337252 -7.752575 113.679684
463     1 2 0.0 2.960478 -7.790392 116.796199
464     1 2 0.0 -2.473267 -5.387837 116.842363
465     1 2 0.0 -4.882510 -5.691576 116.650850
466     1 2 0.0 3.284660 -9.489526 113.239554
467     1 2 0.0 -1.793587 -7.696115 116.466487
468     1 2 0.0 1.705913 -9.766957 114.761259
469     1 1 0.0 -3.653053 -2.512188 121.801886
470     1 1 0.0 -7.002618 -1.708829 123.115188
471     1 1 0.0 -8.167175 4.349477 125.746468
472     1 1 0.0 -8.972043 1.688194 122.909284
473     1 2 0.0 -7.276742 3.990484 128.501519
474     1 2 0.0 -8.683461 0.426495 120.778264
475     1 2 0.0 -3.577560 -0.986709 123.894779
476     1 2 0.0 -8.200295 2.745339 123.940943
477     1 2 0.0 -10.605700 3.078109 123.749430
478     1 2 0.0 -3.706057 -2.711712 120.338134
479     1 2 0.0 -8.143801 0.339736 123.565067
480     1 2 0.0 -5.302662 -2.569354 121.859839
481     1 1 0.0 -8.592274 5.828779 128.900466
482     1 1 0.0 -11.618002 7.474968 130.213768
483     1 1 0.0 -11.168220 13.627769 132.845048
484     1 1 0.0 -12.637006 11.267069 130.007864
485     1 2 0.0 -10.401666 13.049718 135.600099
486     1 2 0.0 -12.686208 9.973723 127.876844
487     1 2 0.0 -8.122959 7.282233 130.993359
488     1 2 0.0 -11.617059 12.087347 131.039523
489     1 2 0.0 -13.853352 13.033761 130.848010
490     1 2 0.0 -8.695306 5.649883 127.436714
491     1 2 0.0 -12.187634 9.749707 130.663647
492     1 2 0.0 -10.200066 6.202249 128.958419
493     1 1 0.0 -11.194298 15.166717 135.999046
494     1 1 0.0 -13.688295 17.542628 137.312348
495     1 1 0.0 -11.655077 23.367171 139.943628
496     1 1 0.0 -13.686864 21.469255 137.106444
497     1 2 0.0 -11.065073 22.609779 142.698679
498     1 2 0.0 -14.070468 20.233127 134.975424
499     1 2 0.0 -10.363407 16.448281 138.091939
500     1 2 0.0 -12.488796 21.996306 138.138103
501     1 2 0.0 -14.402324 23.491337 137.946590
502     1 2 0.0 -11.340280 15.020742 134.535294
503     1 2 0.0 -13.647236 19.887246 137.762227
504     1 2 0.0 -12.649804 15.945164 136.056999
505     1 1 0.0 -11.280343 24.860026 143.097626
506     1 1 0.0 -13.071248 27.802411 144.410928
507     1 1 0.0 -9.594295 32.898495 147.042208
508     1 1 0.0 -12.049479 31.593769 144.205024
509     1 2 0.0 -9.221378 32.013803 149.797259
510     1 2 0.0 -12.741129 30.499793 142.074004
511     1 2 0.0 -10.144965 25.881644 145.190519
512     1 2 0.0 -10.755609 31.791379 145.236683
513     1 2 0.0 -12.214895 33.732305 145.045170
514     1 2 0.0 -11.459243 24.757001 141.633874
515     1 2 0.0 -12.422319 30.055812 144.860807
516     1 2 0.0 -12.483556 25.989962 143.155579
517     1 1 0.0 -8.844497 34.242685 150.196206
518     1 1 0.0 -9.809257 37.549376 151.509508
519     1 1 0.0 -5.127468 41.566854 154.140788
520     1 1 0.0 -7.837356 40.944963 151.303604
521     1 2 0.0 -4.997262 40.615647 156.895839
522     1 2 0.0 -8.789530 40.068304 149.172584
523     1 2 0.0 -7.482643 34.934162 152.289099
524     1 2 0.0 -6.536585 40.799555 152.335263
525     1 2 0.0 -7.441362 43.053016 152.143750
526     1 2 0.0 -9.044023 34.189688 148.732454
527     1 2 0.0 -8.597046 39.556729 151.959387
528     1 2 0.0 -9.712745 35.646473 150.254159
529     1 1 0.0 -4.054124 42.670019 157.294786
530     1 1 0.0 -4.126452 46.113816 158.608088
531     1 1 0.0 1.438491 48.776649 161.239368
532     1 1 0.0 -1.339907 48.880324 158.402184
533     1 2 0.0 1.317040 47.824285 163.994419
534     1 2 0.0 -2.487180 48.281217 156.271164
535     1 2 0.0 -2.559366 42.983845 159.387679
536     1 2 0.0 -0.121609 48.401889 159.433843
537     1 2 0.0 -0.409711 50.813051 159.242330
538     1 2 0.0 -4.260567 42.670692 155.831034
539     1 2 0.0 -2.434249 47.737197 159.057967
540     1 2 0.0 -4.527750 44.251207 157.352739
541     1 1 0.0 2.761633 49.562992 164.393366
542     1 1 0.0 3.586706 52.907275 165.706668
543     1 1 0.0 9.652441 54.032503 168.337948
544     1 1 0.0 6.996435 54.854620 165.500764
545     1 2 0.0 9.287678 53.144418 1.427837
546     1 2 0.0 5.732890 54.574230 163.369744
547     1 2 0.0 4.286591 49.477605 166.486259
548     1 2 0.0 8.048551 54.076030 166.532423
549     1 2 0.0 8.396919 56.479225 166.340910
550     1 2 0.0 2.562457 49.617290 162.929614
551     1 2 0.0 5.642632 54.035144 166.156547
552     1 2 0.0 2.715171 51.212938 164.451319
553     1 1 0.0 11.134469 54.447996 1.826784
554     1 1 0.0 12.800253 57.462981 3.140086
555     1 1 0.0 18.950007 56.973290 5.771366
556     1 1 0.0 16.598886 58.457361 2.934182
557     1 2 0.0 18.366995 56.210503 8.526417
558     1 2 0.0 15.305886 58.514953 0.803162
559     1 2 0.0 12.584848 53.969261 3.919677
560     1 2 0.0 17.412530 57.432113 3.965841
561     1 2 0.0 18.373432 59.662220 3.774328
562     1 2 0.0 10.956245 54.552187 0.363032
563     1 2 0.0 15.078641 58.017843 3.589965
564     1 2 0.0 11.518363 56.053332 1.884737
565     1 1 0.0 20.489092 56.989384 8.925364
566     1 1 0.0 22.881133 59.467914 10.238666
567     1 1 0.0 28.692362 57.396950 12.869946
568     1 1 0.0 26.807669 59.441007 10.032762
569     1 2 0.0 27.931159 56.811872 15.624997
570     1 2 0.0 25.574056 59.832624 7.901742
571     1 2 0.0 21.765239 56.150195 11.018257
572     1 2 0.0 27.326936 58.239545 11.064421
573     1 2 0.0 28.834350 60.143334 10.872908
574     1 2 0.0 20.344067 57.136309 7.461612
575     1 2 0.0 25.225436 59.411644 10.688545
576     1 2 0.0 21.276966 58.439809 8.983317
577     1 1 0.0 27.063535 61.802617 18.668891
578     1 1 0.0 29.644973 64.166130 20.971635
579     1 1 0.0 36.430937 59.895203 21.895832
580     1 1 0.0 33.631671 63.051970 20.944004
581     1 2 0.0 35.355339 60.350174 25.347953
582     1 2 0.0 32.082712 63.512299 19.112515
583     1 2 0.0 28.764085 60.683078 20.101278
584     1 2 0.0 34.546896 61.368622 21.000799
585     1 2 0.0 35.621962 63.598984 22.401840
586     1 2 0.0 27.078813 61.623239 16.887590
587     1 2 0.0 32.088050 63.563082 21.493528
588     1 2 0.0 27.785651 63.285701 19.446552
589     1 1 0.0 37.782118 59.951960 25.767471
590     1 1 0.0 40.889062 61.563454 28.070215
591     1 1 0.0 46.332040 55.675830 28.994412
592     1 1 0.0 44.449270 59.451574 28.042584
593     1 2 0.0 45.411623 56.394679 32.446533
594     1 2 0.0 43.073147 60.298606 26.211095
595     1 2 0.0 39.133320 58.428971 27.199858
596     1 2 0.0 44.895612 57.588223 28.099379
597     1 2 0.0 46.513334 59.462591 29.500420
598     1 2 0.0 37.750258 59.774774 23.986170
599     1 2 0.0 43.091498 60.346257 28.592108
600     1 2 0.0 38.864826 61.196441 26.545132
601     1 1 0.0 47.651551 55.379514 32.866051
602     1 1 0.0 51.070525 56.128265 35.168795
603     1 1 0.0 54.796534 49.028477 36.092992
604     1 1 0.0 53.959624 53.163770 35.141164
605     1 2 0.0 54.094541 49.961813 39.545113
606     1 2 0.0 52.850889 54.339307 33.309675
607     1 2 0.0 48.560564 53.557719 34.298438
608     1 2 0.0 53.906415 51.248446 35.197959
609     1 2 0.0 55.955641 52.638035 36.599000
610     1 2 0.0 47.574741 55.216695 31.084750
611     1 2 0.0 52.880993 54.380552 35.690688
612     1 2 0.0 49.020457 56.299886 33.643712
613     1 1 0.0 55.993712 48.399448 39.964631
614     1 1 0.0 59.489802 48.234010 42.267375
615     1 1 0.0 61.242831 40.409880 43.191572
616     1 1 0.0 61.509283 44.620589 42.239744
617     1 2 0.0 60.807494 41.493574 46.643693
618     1 2 0.0 60.744117 46.043860 40.408255
619     1 2 0.0 56.398078 46.404022 41.397018
620     1 2 0.0 60.960180 42.784892 42.296539
621     1 2 0.0 63.300108 43.594223 43.697580
622     1 2 0.0 55.877230 48.262183 38.183330
623     1 2 0.0 60.783905 46.075866 42.789268
624     1 2 0.0 57.554761 48.932473 40.742292
625     1 1 0.0 62.235419 39.491359 47.063211
626     1 1 0.0 65.568410 38.423099 49.365955
627     1 1 0.0 65.228010 30.412215 50.290152
628     1 1 0.0 66.579517 34.409026 49.338324
629     1 2 0.0 65.089241 31.571807 53.742273
630     1 2 0.0 66.210495 35.982239 47.506835
631     1 2 0.0 62.107355 37.459405 48.495598
632     1 2 0.0 65.572248 32.779085 49.395119
633     1 2 0.0 68.042105 32.952551 50.796160
634     1 2 0.0 62.087268 39.389079 45.281910
635     1 2 0.0 66.257232 36.002806 49.887848
636     1 2 0.0 63.881352 39.600412 47.840872
637     1 1 0.0 65.947808 29.267312 54.161791
638     1 1 0.0 68.888694 27.369630 56.464535
639     1 1 0.0 66.478253 19.722414 57.388732
640     1 1 0.0 68.821955 23.230709 56.436904
641     1 2 0.0 66.645587 20.878230 60.840853
642     1 2 0.0 68.874430 24.845771 54.605415