ITEM: TIMESTEP
40079
ITEM: NUMBER OF ATOMS
81498
ITEM: BOX BOUNDS pp pp pp
-2.5380837399911464e+01 1.2708539739976680e+02
-5.0807557355886757e+01 1.0165983035588675e+02
-2.6326082076633668e+00 3.3626572120766275e+02
ITEM: ATOMS id type xs ys zs
1 1 0.703635 0.832292 0.0304489
2 1 0.715447 0.847257 0.0453294
3 1 0.747907 0.805293 0.0441035
4 1 0.722044 0.829727 0.0477929
5 2 0.735215 0.814643 0.0514662
6 3 0.715885 0.815249 0.0351682
7 2 0.709246 0.823557 0.03132
8 2 0.738122 0.809336 0.0439295
9 2 0.727531 0.829539 0.0519376
10 2 0.704859 0.834881 0.0259144
11 2 0.722361 0.838889 0.0457113
12 2 0.719623 0.856307 0.0455377
13 1 0.729839 0.807639 0.0251006
14 1 0.717026 0.805909 0.0324208
15 1 0.773556 0.794248 0.035998
16 1 0.75679 0.804949 0.0361236
17 2 0.755224 0.781116 0.0462481
18 2 0.75298 0.81069 0.0324486
19 2 0.737416 0.81386 0.0270889
20 2 0.767024 0.80237 0.0362887
21 2 0.75375 0.808211 0.0404499
22 2 0.725014 0.810294 0.0210384
23 2 0.7512 0.795808 0.0356112
24 2 0.722573 0.806257 0.0284793
25 1 0.746017 0.797426 0.0222479
26 1 0.745732 0.808835 0.0290431
27 1 0.778572 0.765348 0.031003
28 1 0.774483 0.785086 0.0300698
29 2 0.769111 0.76313 0.0291406
30 2 0.779256 0.775823 0.0305652
31 2 0.751765 0.789107 0.0235965
32 2 0.767884 0.786478 0.0338246
33 2 0.779655 0.793341 0.0320657
34 2 0.745558 0.797695 0.0174399
35 2 0.768347 0.785728 0.0263046
36 2 0.750269 0.804992 0.0250836
37 1 0.756917 0.773717 0.016297
38 1 0.759587 0.782035 0.0241287
39 1 0.785297 0.735228 0.0285157
40 1 0.78284 0.750397 0.0264654
41 2 0.775724 0.730144 0.0363338
42 2 0.789781 0.742466 0.0256099
43 2 0.746609 0.774109 0.0177132
44 2 0.779495 0.74367 0.0299992
45 2 0.785189 0.759507 0.0284062
46 2 0.751505 0.782067 0.00481692
47 2 0.774965 0.750235 0.0234302
48 2 0.761778 0.778968 0.0197462
49 1 0.756063 0.753801 0.0158803
50 1 0.766772 0.743966 0.0222811
51 1 0.787572 0.696838 0.026515
52 1 0.774006 0.726106 0.0220389
53 2 0.772231 0.705097 0.0341179
54 2 0.77923 0.718107 0.0199472
55 2 0.759799 0.748678 0.0196016
56 2 0.786694 0.702965 0.0226652
57 2 0.77936 0.728419 0.0260717
58 2 0.75998 0.749798 0.0118583
59 2 0.771921 0.735661 0.0203335
60 2 0.759654 0.763739 0.0162523
61 1 0.756718 0.719344 0.0189535
62 1 0.760876 0.7039 0.0235261
63 1 0.786176 0.680767 0.0259693
64 1 0.778766 0.70763 0.0204145
65 2 0.772019 0.671621 0.0342748
66 2 0.773412 0.703281 0.0166583
67 2 0.7586 0.708123 0.0187234
68 2 0.779689 0.689443 0.0263294
69 2 0.793744 0.688206 0.0259481
70 2 0.760047 0.723655 0.0149073
71 2 0.770995 0.706226 0.0237087
72 2 0.764071 0.722131 0.0220743
73 1 0.763581 0.701607 0.0151257
74 1 0.760303 0.683086 0.0245103
75 1 0.769642 0.651887 0.0233234
76 1 0.773783 0.670352 0.0210226
77 2 0.758126 0.64325 0.0329792
78 2 0.775373 0.664759 0.0170299
79 2 0.749346 0.677981 0.0143373
80 2 0.771513 0.662366 0.0240505
81 2 0.782699 0.67514 0.0223667
82 2 0.759743 0.702957 0.0107665
83 2 0.766071 0.677494 0.0214001
84 2 0.759936 0.693671 0.0240871
85 1 0.746433 0.66833 0.0127253
86 1 0.750668 0.655499 0.020048
87 1 0.757408 0.624194 0.0306772
88 1 0.778933 0.655236 0.0159631
89 2 0.752004 0.632535 0.041859
90 2 0.78346 0.652577 0.0123673
91 2 0.743527 0.647977 0.0207291
92 2 0.765966 0.630213 0.0296953
93 2 0.776843 0.649958 0.0198592
94 2 0.748943 0.667431 0.00807185
95 2 0.760491 0.651963 0.0208728
96 2 0.749573 0.661149 0.0160036
97 1 0.726544 0.634272 0.0167553
98 1 0.735604 0.64366 0.0232337
99 1 0.745284 0.610767 0.0322503
100 1 0.739138 0.6306 0.0303798
101 2 0.719251 0.592177 0.0398327
102 2 0.754144 0.614128 0.0299099
103 2 0.719347 0.626333 0.0172678
104 2 0.741095 0.620549 0.0330257
105 2 0.749392 0.62927 0.0286003
106 2 0.731869 0.63586 0.0205388
107 2 0.729417 0.625993 0.0285744
108 2 0.728169 0.65129 0.0236212
109 1 0.686183 0.606456 0.0301741
110 1 0.708674 0.628594 0.0342563
111 1 0.717204 0.588702 0.0353941
112 1 0.726029 0.604756 0.0313508
113 2 0.700286 0.579297 0.0511801
114 2 0.721892 0.610718 0.0278299
115 2 0.675192 0.588779 0.0406051
116 2 0.722229 0.595107 0.0322887
117 2 0.736495 0.605557 0.030911
118 2 0.699882 0.615592 0.0204374
119 2 0.72174 0.60988 0.0351646
120 2 0.69809 0.626194 0.026517
121 1 0.670573 0.851145 0.0391606
122 1 0.684147 0.835521 0.040872
123 1 0.734428 0.824367 0.0544804
124 1 0.701262 0.843775 0.0522208
125 2 0.720512 0.817505 0.063521
126 2 0.708597 0.845271 0.0490379
127 2 0.709665 0.844857 0.041411
128 2 0.711986 0.826749 0.0479196
129 2 0.70277 0.835502 0.0551376
130 2 0.694032 0.838063 0.0397906
131 2 0.690936 0.842754 0.0507909
132 2 0.678537 0.844369 0.0400413
133 1 0.69713 0.80745 0.0322933
134 1 0.704236 0.838715 0.0385667
135 1 0.747163 0.784038 0.0433897
136 1 0.730566 0.811575 0.0470369
137 2 0.739058 0.79083 0.0514463
138 2 0.720711 0.798962 0.0354776
139 2 0.706976 0.803723 0.0316025
140 2 0.750134 0.809425 0.048494
141 2 0.727412 0.80207 0.0483588
142 2 0.694012 0.811163 0.0280711
143 2 0.725932 0.820514 0.0459284
144 2 0.705226 0.839524 0.0338334
145 1 0.706846 0.785885 0.0242189
146 1 0.723696 0.790087 0.0376284
147 1 0.758695 0.772483 0.0388181
148 1 0.741967 0.792208 0.0339305
149 2 0.741497 0.757826 0.0441206
150 2 0.740215 0.801111 0.0313895
151 2 0.710725 0.781928 0.0282334
152 2 0.75058 0.77933 0.0394684
153 2 0.747257 0.794662 0.0439477
154 2 0.71507 0.78943 0.021664
155 2 0.734378 0.790458 0.0372258
156 2 0.719622 0.782155 0.0350838
157 1 0.736712 0.775675 0.0287776
158 1 0.716836 0.776635 0.0312214
159 1 0.768258 0.737281 0.0373476
160 1 0.759153 0.765821 0.0299375
161 2 0.754131 0.74705 0.0441071
162 2 0.757017 0.773531 0.0268049
163 2 0.739984 0.767183 0.0310922
164 2 0.759332 0.769771 0.0343181
165 2 0.767729 0.776294 0.0406507
166 2 0.73826 0.774915 0.0241623
167 2 0.752724 0.757626 0.0302383
168 2 0.740832 0.784195 0.030935
169 1 0.737653 0.742492 0.0266124
170 1 0.742262 0.756891 0.0307786
171 1 0.762182 0.704737 0.0354217
172 1 0.755778 0.736365 0.0297284
173 2 0.747396 0.713791 0.0429017
174 2 0.761732 0.739937 0.026108
175 2 0.728507 0.740029 0.0282442
176 2 0.753643 0.725922 0.0293046
177 2 0.761189 0.737984 0.0337995
178 2 0.733036 0.764042 0.0182634
179 2 0.745996 0.740377 0.0295832
180 2 0.738418 0.753069 0.0267281
181 1 0.717531 0.708986 0.0227244
182 1 0.730961 0.71789 0.0282623
183 1 0.762467 0.6735 0.0325013
184 1 0.75098 0.715771 0.0296802
185 2 0.73948 0.685302 0.0460868
186 2 0.754609 0.709565 0.0261404
187 2 0.723733 0.711098 0.0264606
188 2 0.747583 0.689852 0.0398731
189 2 0.756243 0.712222 0.0334474
190 2 0.733508 0.723268 0.0243183
191 2 0.740573 0.714256 0.0296515
192 2 0.70796 0.713604 0.0232275
193 1 0.740371 0.682814 0.0226655
194 1 0.732721 0.686879 0.0309658
195 1 0.748147 0.645959 0.0340547
196 1 0.750824 0.688002 0.0355218
197 2 0.734959 0.660337 0.0406591
198 2 0.757375 0.695704 0.0342422
199 2 0.750013 0.680306 0.024196
200 2 0.756475 0.665899 0.0307276
201 2 0.763614 0.679977 0.0287561
202 2 0.743358 0.689937 0.0193422
203 2 0.742042 0.687714 0.0329161
204 2 0.73447 0.685885 0.0263669
205 1 0.719316 0.656111 0.0250053
206 1 0.729008 0.667637 0.0306339
207 1 0.744361 0.635305 0.0448587
208 1 0.747763 0.662383 0.0286174
209 2 0.72545 0.622366 0.0497827
210 2 0.749025 0.661425 0.0239636
211 2 0.714939 0.650426 0.0284965
212 2 0.739286 0.643991 0.043485
213 2 0.745772 0.65333 0.030763
214 2 0.72167 0.669536 0.0155948
215 2 0.739039 0.668316 0.0293951
216 2 0.722604 0.6654 0.0270899
217 1 0.691411 0.62667 0.0301507
218 1 0.708194 0.647557 0.0318725
219 1 0.714045 0.611752 0.0383672
220 1 0.720594 0.621069 0.0273906
221 2 0.724211 0.606415 0.0610827
222 2 0.737257 0.639443 0.0273708
223 2 0.697322 0.6297 0.0342654
224 2 0.711115 0.621893 0.037711
225 2 0.741547 0.637682 0.0341477
226 2 0.698999 0.645106 0.0301275
227 2 0.712993 0.624233 0.0304316
228 2 0.706821 0.655439 0.0350622
229 1 0.665918 0.59366 0.0398962
230 1 0.684703 0.591329 0.0424184
231 1 0.692975 0.586058 0.0495298
232 1 0.699267 0.597465 0.0360238
233 2 0.679069 0.58394 0.0678058
234 2 0.693414 0.600611 0.032356
235 2 0.668359 0.603132 0.0419406
236 2 0.687955 0.584083 0.0455256
237 2 0.705379 0.605866 0.0373336
238 2 0.671594 0.601978 0.0210773
239 2 0.69228 0.5941 0.0393206
240 2 0.688911 0.616611 0.0309636
241 1 0.641868 0.836641 0.041956
242 1 0.670716 0.855885 0.0476679
243 1 0.700136 0.827203 0.0578858
244 1 0.68702 0.851618 0.0529206
245 2 0.706258 0.826364 0.061727
246 2 0.697315 0.853066 0.0539866
247 2 0.682584 0.824742 0.0524423
248 2 0.689865 0.828545 0.0589019
249 2 0.681766 0.849996 0.0569598
250 2 0.662418 0.844755 0.0404124
251 2 0.680024 0.856094 0.049957
252 2 0.670885 0.857964 0.0429486
253 1 0.672909 0.82019 0.0373422
254 1 0.685874 0.822322 0.0480533
255 1 0.728664 0.793067 0.0507145
256 1 0.706422 0.818219 0.0468329
257 2 0.709545 0.801916 0.0567282
258 2 0.707266 0.82852 0.0390881
259 2 0.679637 0.827805 0.038265
260 2 0.709558 0.811367 0.0501662
261 2 0.700937 0.817348 0.0558655
262 2 0.675107 0.816216 0.0330801
263 2 0.696221 0.820288 0.0474993
264 2 0.68387 0.83013 0.0449949
265 1 0.685698 0.791169 0.035411
266 1 0.70738 0.818428 0.0380523
267 1 0.729935 0.775581 0.047355
268 1 0.713571 0.784879 0.0454649
269 2 0.703963 0.771043 0.0540657
270 2 0.719928 0.789003 0.0419627
271 2 0.690264 0.785408 0.038808
272 2 0.724522 0.784943 0.0481961
273 2 0.707844 0.791099 0.0485173
274 2 0.685686 0.785589 0.0313877
275 2 0.705402 0.782667 0.0423102
276 2 0.69104 0.799778 0.0339792
277 1 0.700471 0.761065 0.0426231
278 1 0.695062 0.780861 0.0424498
279 1 0.73127 0.756045 0.0447088
280 1 0.711141 0.758737 0.0348104
281 2 0.730861 0.749379 0.0484935
282 2 0.712213 0.767468 0.032338
283 2 0.70396 0.760964 0.0471079
284 2 0.719793 0.752941 0.0346392
285 2 0.72773 0.76609 0.0454328
286 2 0.688469 0.776755 0.0247325
287 2 0.70328 0.751361 0.0342571
288 2 0.694591 0.770028 0.0424331
289 1 0.69969 0.744976 0.037473
290 1 0.70909 0.766715 0.0503557
291 1 0.740408 0.721841 0.0431438
292 1 0.728454 0.748074 0.03632
293 2 0.725144 0.708749 0.0522011
294 2 0.737173 0.752294 0.0344035
295 2 0.701701 0.734982 0.0370233
296 2 0.728266 0.737632 0.0366181
297 2 0.727602 0.75146 0.0408932
298 2 0.67569 0.728198 0.0211479
299 2 0.717468 0.762133 0.0523681
300 2 0.712624 0.77499 0.0477293
301 1 0.703871 0.711527 0.0324308
302 1 0.706602 0.725505 0.0361107
303 1 0.729095 0.683866 0.0456248
304 1 0.726647 0.727205 0.0364893
305 2 0.737384 0.703469 0.0503647
306 2 0.727722 0.722443 0.0322875
307 2 0.709783 0.702705 0.0328001
308 2 0.72544 0.693898 0.0321179
309 2 0.733547 0.722872 0.0395838
310 2 0.701458 0.716131 0.0367031
311 2 0.716333 0.726103 0.0377946
312 2 0.707561 0.721599 0.0316473
313 1 0.71253 0.688503 0.023322
314 1 0.71469 0.693381 0.0322887
315 1 0.725379 0.659796 0.0385492
316 1 0.721294 0.679218 0.0374111
317 2 0.725417 0.655641 0.0474808
318 2 0.727571 0.677662 0.0329753
319 2 0.712482 0.664887 0.0481924
320 2 0.726431 0.674366 0.0473148
321 2 0.726475 0.683827 0.0409398
322 2 0.714909 0.698696 0.0225238
323 2 0.71408 0.685772 0.0356856
324 2 0.712606 0.688686 0.0281145
325 1 0.698796 0.655786 0.0381786
326 1 0.704581 0.658336 0.0468915
327 1 0.718104 0.629586 0.0488495
328 1 0.720386 0.647736 0.0451385
329 2 0.702855 0.641977 0.0573215
330 2 0.727587 0.660401 0.033929
331 2 0.696688 0.645345 0.0387984
332 2 0.722064 0.637906 0.0464645
333 2 0.721213 0.651493 0.0406888
334 2 0.698868 0.667368 0.0202139
335 2 0.710245 0.6493 0.0464682
336 2 0.701037 0.659869 0.0424443
337 1 0.672413 0.639562 0.0380811
338 1 0.692838 0.635691 0.0381416
339 1 0.696456 0.606288 0.04925
340 1 0.69921 0.624543 0.0457824
341 2 0.688094 0.60867 0.0519959
342 2 0.711373 0.638626 0.0341859
343 2 0.662938 0.6248 0.0469779
344 2 0.697405 0.61403 0.0460077
345 2 0.709479 0.626322 0.0465771
346 2 0.682755 0.63725 0.0371324
347 2 0.695386 0.629592 0.0418781
348 2 0.672121 0.648904 0.0404759
349 1 0.659044 0.605928 0.0518165
350 1 0.672541 0.626578 0.0451446
351 1 0.672739 0.586669 0.0640986
352 1 0.674251 0.607123 0.0454778
353 2 0.677751 0.584328 0.0776226
354 2 0.682119 0.600128 0.0449985
355 2 0.660957 0.609003 0.0629729
356 2 0.670805 0.596228 0.0624456
357 2 0.696807 0.595802 0.0485066
358 2 0.66454 0.595142 0.0352825
359 2 0.678726 0.632189 0.0480226
360 2 0.668468 0.607067 0.0494796
361 1 0.631386 0.858511 0.0489393
362 1 0.639053 0.859376 0.0571701
363 1 0.673297 0.845556 0.0589299
364 1 0.657607 0.853956 0.0540552
365 2 0.659808 0.831902 0.0651026
366 2 0.662788 0.859176 0.0505665
367 2 0.650247 0.839118 0.0447102
368 2 0.651636 0.834301 0.0583869
369 2 0.665081 0.850725 0.0570595
370 2 0.637649 0.859559 0.045158
371 2 0.649376 0.858932 0.0561103
372 2 0.634275 0.862794 0.0531088
373 1 0.658726 0.821933 0.047342
374 1 0.6609 0.83998 0.0445909
375 1 0.703756 0.808096 0.0538543
376 1 0.68026 0.826975 0.0569504
377 2 0.687049 0.807671 0.0620672
378 2 0.680966 0.812942 0.0473939
379 2 0.664616 0.813559 0.048165
380 2 0.675959 0.818604 0.0590618
381 2 0.674197 0.83553 0.0573827
382 2 0.652511 0.819688 0.0435907
383 2 0.667132 0.845799 0.0473612
384 2 0.663981 0.830098 0.0453903
385 1 0.670471 0.800982 0.0398295
386 1 0.672702 0.806524 0.0479635
387 1 0.70196 0.779406 0.0568683
388 1 0.697575 0.791673 0.050053
389 2 0.65352 0.776333 0.060817
390 2 0.708116 0.814406 0.0424635
391 2 0.660476 0.80079 0.0383617
392 2 0.696619 0.785713 0.0539168
393 2 0.696662 0.801598 0.0517334
394 2 0.67311 0.811309 0.0398439
395 2 0.692664 0.786511 0.0464717
396 2 0.67125 0.799465 0.0444848
397 1 0.669608 0.658997 0.0417985
398 1 0.672793 0.662457 0.0512068
399 1 0.692518 0.644557 0.0580983
400 1 0.69236 0.662508 0.0539364
401 2 0.678584 0.648112 0.0664678
402 2 0.697379 0.657549 0.0502027
403 2 0.670093 0.652488 0.0522145
404 2 0.691267 0.654737 0.0572705
405 2 0.698291 0.670147 0.0552174
406 2 0.675509 0.66472 0.0387506
407 2 0.682785 0.664566 0.0521044
408 2 0.670834 0.662171 0.0463634
409 1 0.656157 0.632779 0.0471076
410 1 0.660886 0.647823 0.0517154
411 1 0.683494 0.6136 0.0557228
412 1 0.685172 0.631524 0.0517464
413 2 0.669291 0.608508 0.0695486
414 2 0.670745 0.631628 0.0411145
415 2 0.65344 0.613903 0.0537407
416 2 0.68154 0.623278 0.0542239
417 2 0.694276 0.628575 0.0496238
418 2 0.66207 0.640986 0.0481898
419 2 0.687091 0.639109 0.0548496
420 2 0.652826 0.653769 0.0500339
421 1 0.626849 0.596578 0.0552762
422 1 0.648805 0.6202 0.0570222
423 1 0.657181 0.587549 0.0697968
424 1 0.66698 0.604083 0.0597525
425 2 0.632009 0.589357 0.0739774
426 2 0.661705 0.600851 0.0558861
427 2 0.628003 0.59191 0.0596029
428 2 0.663506 0.583652 0.0662129
429 2 0.675187 0.609358 0.0579024
430 2 0.656862 0.591707 0.0421669
431 2 0.656848 0.626393 0.0586122
432 2 0.641162 0.626661 0.0555957
433 1 0.605924 0.85386 0.0542912
434 1 0.630104 0.860447 0.065224
435 1 0.65084 0.835436 0.0630252
436 1 0.629166 0.846683 0.0708665
437 2 0.638503 0.823833 0.074926
438 2 0.635361 0.863112 0.061328
439 2 0.63102 0.848259 0.0503322
440 2 0.633838 0.839424 0.073409
441 2 0.625668 0.854265 0.0741083
442 2 0.591365 0.854161 0.048833
443 2 0.634022 0.852021 0.067569
444 2 0.620309 0.85668 0.0643384
445 1 0.6204 0.827881 0.0534085
446 1 0.632266 0.842049 0.0541342
447 1 0.676625 0.809706 0.0615661
448 1 0.65022 0.834651 0.0536756
449 2 0.657427 0.803947 0.0687124
450 2 0.653397 0.84459 0.0526148
451 2 0.626855 0.819543 0.054149
452 2 0.65435 0.826709 0.0511448
453 2 0.649333 0.81197 0.0740075
454 2 0.621536 0.830387 0.0489169
455 2 0.639762 0.835062 0.0531459
456 2 0.624114 0.836419 0.0556925
457 1 0.646606 0.798672 0.053301
458 1 0.633313 0.812905 0.056478
459 1 0.653836 0.785404 0.0583711
460 1 0.66622 0.798162 0.0555485
461 2 0.654318 0.789884 0.0627427
462 2 0.672375 0.800865 0.0519478
463 2 0.646143 0.789724 0.0558954
464 2 0.662906 0.788122 0.0562452
465 2 0.671182 0.802149 0.0592931
466 2 0.64522 0.795754 0.0488086
467 2 0.656381 0.801939 0.0545161
468 2 0.639549 0.806202 0.0542655
469 1 0.643372 0.653912 0.0477238
470 1 0.64533 0.666078 0.0616634
471 1 0.668945 0.649221 0.0644251
472 1 0.665268 0.667372 0.0594838
473 2 0.648592 0.644321 0.0725519
474 2 0.666952 0.667018 0.0546486
475 2 0.64519 0.655477 0.0611662
476 2 0.667177 0.657491 0.0615923
477 2 0.671122 0.67413 0.0615603
478 2 0.64482 0.655646 0.0428477
479 2 0.654682 0.668944 0.0601233
480 2 0.637529 0.66246 0.0489434
481 1 0.639042 0.635272 0.0523773
482 1 0.641908 0.645423 0.0608683
483 1 0.659535 0.607686 0.0676455
484 1 0.658771 0.636493 0.0596024
485 2 0.638618 0.621718 0.072972
486 2 0.658723 0.642479 0.0556605
487 2 0.621372 0.635951 0.0632032
488 2 0.642711 0.614501 0.0600748
489 2 0.667197 0.640078 0.0619804
490 2 0.648725 0.632646 0.0502806
491 2 0.650152 0.639447 0.0619915
492 2 0.638565 0.642161 0.0565345
493 1 0.623585 0.59694 0.0634115
494 1 0.617376 0.626638 0.0617542
495 1 0.62321 0.586247 0.0714667
496 1 0.63241 0.612374 0.0604731
497 2 0.614016 0.58682 0.0738175
498 2 0.629378 0.606485 0.0566969
499 2 0.62236 0.591548 0.0673916
500 2 0.629963 0.605321 0.0639532
501 2 0.656312 0.59773 0.0685533
502 2 0.639815 0.597289 0.0443705
503 2 0.625468 0.620177 0.0610037
504 2 0.612011 0.630554 0.0580481
505 1 0.610345 0.854253 0.0630683
506 1 0.602431 0.863772 0.0700755
507 1 0.630804 0.830422 0.0756496
508 1 0.62241 0.865246 0.0729952
509 2 0.628148 0.849217 0.0821507
510 2 0.612152 0.865854 0.0719935
511 2 0.605631 0.844967 0.0641829
512 2 0.625008 0.866193 0.0776013
513 2 0.627989 0.866795 0.0690787
514 2 0.610801 0.854927 0.0583412
515 2 0.597599 0.849574 0.0794275
516 2 0.604542 0.861246 0.0655711
517 1 0.60561 0.822396 0.0585137
518 1 0.600978 0.835616 0.0651463
519 1 0.647827 0.807389 0.0696785
520 1 0.613682 0.834751 0.0719553
521 2 0.643308 0.800422 0.0811119
522 2 0.635811 0.849102 0.0573011
523 2 0.613773 0.818782 0.0610938
524 2 0.621119 0.828502 0.0738983
525 2 0.620076 0.841923 0.069818
526 2 0.610522 0.825928 0.0546623
527 2 0.606804 0.831535 0.0687528
528 2 0.601275 0.829733 0.061217
529 1 0.604564 0.797388 0.049693
530 1 0.62107 0.812591 0.0629878
531 1 0.656383 0.78066 0.06505
532 1 0.63847 0.821213 0.0642526
533 2 0.639564 0.800756 0.0693396
534 2 0.638875 0.818678 0.0596132
535 2 0.607869 0.791565 0.0457862
536 2 0.644899 0.81533 0.0668082
537 2 0.641923 0.831154 0.0645517
538 2 0.61333 0.80441 0.0489172
539 2 0.628342 0.818671 0.0652122
540 2 0.626622 0.808121 0.0594891
541 1 0.616826 0.675565 0.0551064
542 1 0.62639 0.664706 0.0610902
543 1 0.639646 0.64941 0.0737639
544 1 0.634969 0.666665 0.0692428
545 2 0.632073 0.655213 0.0846676
546 2 0.642772 0.669386 0.066143
547 2 0.600515 0.657951 0.0649308
548 2 0.639344 0.658563 0.0715126
549 2 0.628777 0.670768 0.0727263
550 2 0.623179 0.671031 0.0520242
551 2 0.635858 0.668077 0.0594981
552 2 0.619116 0.671157 0.0591756
553 1 0.60874 0.639488 0.0560162
554 1 0.60565 0.649101 0.0641087
555 1 0.629286 0.622335 0.0748705
556 1 0.623964 0.646145 0.0637097
557 2 0.612219 0.617829 0.0787613
558 2 0.634355 0.645296 0.0642339
559 2 0.610421 0.622338 0.064847
560 2 0.62532 0.631842 0.0757498
561 2 0.629486 0.646157 0.0733089
562 2 0.614977 0.641932 0.0523243
563 2 0.624399 0.654396 0.0604671
564 2 0.607641 0.646744 0.0594985
565 1 0.586897 0.613875 0.0626831
566 1 0.602406 0.618865 0.0675987
567 1 0.607683 0.592947 0.0766261
568 1 0.613623 0.611766 0.0745278
569 2 0.581035 0.598567 0.0875986
570 2 0.614283 0.600385 0.0615047
571 2 0.606696 0.589367 0.0810381
572 2 0.613376 0.602114 0.0761546
573 2 0.622258 0.616049 0.0727843
574 2 0.599089 0.596669 0.0573474
575 2 0.606174 0.614013 0.0714737
576 2 0.595649 0.61279 0.0652343
577 1 0.574952 0.855744 0.0656175
578 1 0.584 0.868056 0.0722501
579 1 0.624023 0.85617 0.0791603
580 1 0.59166 0.852547 0.075821
581 2 0.618374 0.825743 0.0931389
582 2 0.593987 0.870132 0.070709
583 2 0.578152 0.845661 0.0659619
584 2 0.598764 0.855022 0.0723387
585 2 0.571304 0.839069 0.0785374
586 2 0.577324 0.859901 0.061421
587 2 0.576961 0.874713 0.0741393
588 2 0.579375 0.861906 0.0689498
589 1 0.573104 0.818623 0.062667
590 1 0.580357 0.835631 0.0669696
591 1 0.633294 0.80318 0.0802896
592 1 0.607282 0.845908 0.0795099
593 2 0.614537 0.823529 0.0834536
594 2 0.590941 0.835321 0.0666046
595 2 0.577161 0.811729 0.0659718
596 2 0.609168 0.839867 0.0756115
597 2 0.613919 0.853996 0.0793792
598 2 0.577114 0.817431 0.0582635
599 2 0.609647 0.83979 0.0831135
600 2 0.575878 0.828248 0.064197
601 1 0.594848 0.797841 0.0664739
602 1 0.599322 0.808254 0.0739701
603 1 0.632296 0.795052 0.0718052
604 1 0.613265 0.799469 0.0691118
605 2 0.612634 0.790776 0.0798883
606 2 0.616102 0.805343 0.0654385
607 2 0.60396 0.794456 0.0680786
608 2 0.622179 0.79484 0.0703556
609 2 0.63184 0.801062 0.0757202
610 2 0.596032 0.800788 0.0620205
611 2 0.60872 0.806738 0.0720082
612 2 0.59251 0.80656 0.0700297
613 1 0.596743 0.667867 0.064954
614 1 0.604696 0.671161 0.0732837
615 1 0.622465 0.656797 0.0827195
616 1 0.620233 0.669433 0.0754311
617 2 0.602838 0.665282 0.089965
618 2 0.627624 0.665003 0.065811
619 2 0.611357 0.640637 0.0755307
620 2 0.612165 0.663363 0.0735803
621 2 0.622225 0.664939 0.0796296
622 2 0.599138 0.669862 0.0602969
623 2 0.612833 0.677125 0.0750043
624 2 0.60119 0.672104 0.0688503
625 1 0.593402 0.637177 0.0689692
626 1 0.601398 0.639539 0.0770181
627 1 0.601971 0.620244 0.0803484
628 1 0.621768 0.64191 0.0759916
629 2 0.588703 0.626864 0.0867068
630 2 0.615287 0.649126 0.0660794
631 2 0.577336 0.624626 0.0712729
632 2 0.599907 0.629333 0.0783012
633 2 0.621901 0.648031 0.0799366
634 2 0.597085 0.627302 0.0691813
635 2 0.595528 0.641413 0.07323
636 2 0.583065 0.638659 0.0685261
637 1 0.570189 0.603762 0.0665263
638 1 0.575679 0.615143 0.0731967
639 1 0.575947 0.601999 0.0837542
640 1 0.590372 0.604176 0.0770592
641 2 0.573456 0.612335 0.0842007
642 2 0.584583 0.609544 0.0738623
643 2 0.573418 0.594349 0.0671708
644 2 0.582923 0.601014 0.0801683
645 2 0.597785 0.597047 0.075748
646 2 0.577981 0.609684 0.0643806
647 2 0.596153 0.611997 0.0792712
648 2 0.569017 0.609528 0.0705392
649 1 0.557012 0.857396 0.0763994
650 1 0.554209 0.871982 0.0817812
651 1 0.608732 0.829348 0.0939838
652 1 0.570363 0.872593 0.0777095
653 2 0.585228 0.855906 0.093543
654 2 0.56111 0.8774 0.07894
655 2 0.557377 0.84801 0.0785251
656 2 0.58625 0.861427 0.0758758
657 2 0.575332 0.872177 0.0819323
658 2 0.566359 0.862764 0.0766164
659 2 0.561545 0.867394 0.0846257
660 2 0.551216 0.864295 0.0787722
661 1 0.551142 0.831614 0.0706407
662 1 0.562375 0.840589 0.0810286
663 1 0.607003 0.830382 0.0848494
664 1 0.579314 0.836095 0.0758306
665 2 0.586049 0.823163 0.0916322
666 2 0.577 0.833197 0.0713721
667 2 0.556088 0.829185 0.0746281
668 2 0.585544 0.84439 0.0749496
669 2 0.605833 0.831721 0.0894974
670 2 0.551425 0.822207 0.0684235
671 2 0.558964 0.830513 0.0816012
672 2 0.55502 0.840222 0.0686035
673 1 0.56945 0.806195 0.0770917
674 1 0.558096 0.823037 0.078343
675 1 0.606404 0.79895 0.0805673
676 1 0.591444 0.821693 0.0799128
677 2 0.600109 0.814129 0.089037
678 2 0.59624 0.81689 0.0761633
679 2 0.573742 0.804262 0.081347
680 2 0.598945 0.800577 0.0772547
681 2 0.59843 0.827147 0.0824561
682 2 0.576323 0.805614 0.0733645
683 2 0.584533 0.828393 0.0780203
684 2 0.566009 0.816315 0.077465
685 1 0.567769 0.665064 0.0719858
686 1 0.575831 0.679684 0.0770338
687 1 0.593712 0.667198 0.0876548
688 1 0.590252 0.67496 0.079679
689 2 0.569993 0.673892 0.0941158
690 2 0.596948 0.67073 0.07651
691 2 0.572412 0.656625 0.0738613
692 2 0.594049 0.674287 0.0840544
693 2 0.585842 0.683326 0.0773758
694 2 0.569087 0.664955 0.0672937
695 2 0.579866 0.67189 0.0799368
696 2 0.572471 0.673984 0.0733458
697 1 0.574837 0.6348 0.0708564
698 1 0.574008 0.649522 0.0772687
699 1 0.580407 0.633338 0.0870301
700 1 0.589866 0.649389 0.0829448
701 2 0.566563 0.633062 0.0975092
702 2 0.598368 0.645002 0.080844
703 2 0.542626 0.612535 0.081704
704 2 0.584492 0.642559 0.0856795
705 2 0.5922 0.658096 0.0852522
706 2 0.599315 0.641606 0.06567
707 2 0.583178 0.651003 0.0793762
708 2 0.573905 0.640112 0.0750004
709 1 0.556356 0.597837 0.0849975
710 1 0.550463 0.61683 0.0843353
711 1 0.558162 0.597002 0.0938034
712 1 0.569289 0.620729 0.0819011
713 2 0.556708 0.593713 0.089338
714 2 0.57205 0.618271 0.0774641
715 2 0.566217 0.597589 0.0832156
716 2 0.558736 0.620916 0.0821271
717 2 0.573274 0.629413 0.0839809
718 2 0.561715 0.6033 0.0633888
719 2 0.553753 0.633685 0.0743999
720 2 0.554502 0.607989 0.0861809
721 1 0.533138 0.853253 0.0802775
722 1 0.538941 0.867862 0.0863344
723 1 0.576831 0.856984 0.090869
724 1 0.571819 0.866787 0.0856465
725 2 0.560487 0.843844 0.10028
726 2 0.545717 0.874697 0.0842745
727 2 0.537335 0.844977 0.0824764
728 2 0.577041 0.857443 0.0860133
729 2 0.57323 0.866991 0.090378
730 2 0.534449 0.853355 0.0754832
731 2 0.544771 0.862691 0.0896525
732 2 0.535958 0.861579 0.0827513
733 1 0.528839 0.821783 0.0802404
734 1 0.536111 0.836858 0.085404
735 1 0.575641 0.823731 0.0907304
736 1 0.566053 0.84072 0.089679
737 2 0.560146 0.82407 0.100916
738 2 0.562922 0.844035 0.0854238
739 2 0.534056 0.812673 0.0806393
740 2 0.573331 0.833222 0.0889499
741 2 0.570152 0.84916 0.0917929
742 2 0.528102 0.824576 0.0756619
743 2 0.558099 0.835559 0.0917095
744 2 0.535312 0.828422 0.0825296
745 1 0.539458 0.790129 0.0785859
746 1 0.543896 0.809479 0.081355
747 1 0.586162 0.799167 0.0928886
748 1 0.579478 0.80838 0.0849644
749 2 0.561683 0.803374 0.098263
750 2 0.550077 0.816463 0.0791336
751 2 0.542817 0.785318 0.082158
752 2 0.586669 0.814134 0.0824561
753 2 0.574298 0.815827 0.0875161
754 2 0.545225 0.789851 0.0744962
755 2 0.583401 0.801754 0.0883133
756 2 0.544611 0.80067 0.0786673
757 1 0.544311 0.665044 0.0818767
758 1 0.55205 0.682713 0.0852064
759 1 0.559993 0.674294 0.0925991
760 1 0.558528 0.691077 0.0775617
761 2 0.547876 0.667002 0.101696
762 2 0.567885 0.685772 0.0780937
763 2 0.550976 0.657377 0.0832825
764 2 0.551298 0.679376 0.094536
765 2 0.55941 0.700516 0.0760934
766 2 0.542911 0.663682 0.0771926
767 2 0.55427 0.689714 0.081966
768 2 0.548815 0.674135 0.0829316
769 1 0.548898 0.639292 0.077746
770 1 0.558332 0.649619 0.0836963
771 1 0.557283 0.637856 0.0975975
772 1 0.56266 0.654417 0.092545
773 2 0.536765 0.633098 0.103958
774 2 0.572613 0.657944 0.0932869
775 2 0.529626 0.632952 0.0848843
776 2 0.559115 0.647756 0.0959232
777 2 0.557571 0.663907 0.092362
778 2 0.548988 0.649025 0.0756877
779 2 0.561582 0.649869 0.0882273
780 2 0.566382 0.6506 0.0805909
781 1 0.52747 0.606987 0.0893553
782 1 0.528094 0.62781 0.0889996
783 1 0.541328 0.606766 0.0963651
784 1 0.545438 0.625228 0.0925881
785 2 0.548747 0.5994 0.0956536
786 2 0.547401 0.622501 0.0880498
787 2 0.533238 0.605855 0.0933418
788 2 0.545141 0.616457 0.0952672
789 2 0.551505 0.632612 0.0943955
790 2 0.533116 0.602474 0.085923
791 2 0.535717 0.629072 0.09217
792 2 0.526963 0.617481 0.0884339
793 1 0.508938 0.849627 0.0918311
794 1 0.523976 0.861085 0.0908607
795 1 0.550507 0.84303 0.0988079
796 1 0.541697 0.856934 0.0933922
797 2 0.543657 0.84425 0.102163
798 2 0.529411 0.868652 0.0885133
799 2 0.516124 0.842314 0.092958
800 2 0.547679 0.849178 0.0951212
801 2 0.538385 0.862999 0.0970184
802 2 0.522398 0.853035 0.0803984
803 2 0.532226 0.854034 0.0914139
804 2 0.514973 0.856651 0.0894095
805 1 0.513493 0.819218 0.0864823
806 1 0.521215 0.834134 0.0912935
807 1 0.549766 0.824052 0.100933
808 1 0.54892 0.830661 0.0922736
809 2 0.52853 0.82347 0.109886
810 2 0.542884 0.835263 0.0889508
811 2 0.517003 0.810668 0.0886205
812 2 0.547689 0.820366 0.0913649
813 2 0.548101 0.832157 0.0972958
814 2 0.504287 0.817183 0.0844276
815 2 0.526711 0.837195 0.0874903
816 2 0.514303 0.827105 0.0894829
817 1 0.501457 0.795051 0.0830757
818 1 0.524936 0.803881 0.0894276
819 1 0.551222 0.804608 0.0983144
820 1 0.544504 0.810354 0.0903791
821 2 0.534249 0.804952 0.106229
822 2 0.547074 0.808595 0.0857849
823 2 0.511145 0.791748 0.0829117
824 2 0.547763 0.803845 0.0937951
825 2 0.547699 0.814535 0.0992394
826 2 0.499728 0.799375 0.0790113
827 2 0.53396 0.809211 0.089994
828 2 0.524982 0.798862 0.0852294
829 1 0.511907 0.670276 0.0901429
830 1 0.525036 0.67824 0.0968031
831 1 0.53773 0.664389 0.101365
832 1 0.542631 0.683677 0.0929584
833 2 0.525923 0.670598 0.111284
834 2 0.55941 0.679033 0.0883004
835 2 0.508326 0.662413 0.0929583
836 2 0.531496 0.671277 0.0990321
837 2 0.544426 0.685387 0.0885053
838 2 0.518313 0.667389 0.086621
839 2 0.533288 0.683825 0.094778
840 2 0.518532 0.675421 0.0931881
841 1 0.517001 0.642541 0.0912658
842 1 0.508806 0.655418 0.0964472
843 1 0.526592 0.63386 0.102979
844 1 0.526974 0.650792 0.0975697
845 2 0.506873 0.637499 0.111626
846 2 0.525205 0.648124 0.0929826
847 2 0.512534 0.643789 0.0870093
848 2 0.525628 0.6424 0.100264
849 2 0.535684 0.65561 0.098903
850 2 0.519791 0.63253 0.0909713
851 2 0.518343 0.656839 0.0983986
852 2 0.50969 0.645935 0.0943622
853 1 0.507608 0.603962 0.0915792
854 1 0.500716 0.624116 0.0925375
855 1 0.508761 0.602428 0.100853
856 1 0.511612 0.623395 0.100229
857 2 0.499334 0.600328 0.102829
858 2 0.506336 0.626493 0.0963984
859 2 0.507955 0.60014 0.0961509
860 2 0.51006 0.613027 0.100527
861 2 0.521435 0.626484 0.100503
862 2 0.51763 0.604046 0.0902529
863 2 0.505366 0.627633 0.10369
864 2 0.503636 0.614056 0.0918152
865 1 0.503241 0.851353 0.100312
866 1 0.518533 0.859325 0.105923
867 1 0.534144 0.84787 0.104777
868 1 0.528892 0.861703 0.0991652
869 2 0.504391 0.85499 0.113473
870 2 0.5227 0.863563 0.0953918
871 2 0.503053 0.840352 0.100146
872 2 0.529619 0.851424 0.100413
873 2 0.524123 0.86552 0.102946
874 2 0.505261 0.853749 0.0958037
875 2 0.524631 0.851288 0.107101
876 2 0.510454 0.855123 0.103351
877 1 0.490517 0.841872 0.0895499
878 1 0.506453 0.830295 0.100785
879 1 0.522753 0.820578 0.113715
880 1 0.524811 0.823564 0.0980804
881 2 0.525092 0.824282 0.124907
882 2 0.527892 0.828687 0.0941246
883 2 0.501343 0.820785 0.100263
884 2 0.524361 0.813146 0.0975385
885 2 0.529914 0.825495 0.102017
886 2 0.48775 0.83349 0.0867524
887 2 0.515268 0.82799 0.0984763
888 2 0.500811 0.844216 0.0899002
889 1 0.485851 0.804984 0.0956527