ITEM: TIMESTEP
830073
ITEM: NUMBER OF ATOMS
81498
ITEM: BOX BOUNDS pp pp pp
-2.3560214348556677e+01 1.2526477434557282e+02
-4.8986920537426627e+01 9.9839193537426624e+01
1.4142295161788638e+00 3.3221888348380907e+02
ITEM: ATOMS id type xs ys zs
1 1 0.588187 0.876725 0.0434977
2 1 0.597652 0.883903 0.05764
3 1 0.634719 0.844616 0.0549483
4 1 0.606704 0.86736 0.0596281
5 2 0.621344 0.851923 0.063683
6 3 0.603642 0.865412 0.0476258
7 2 0.590169 0.867375 0.0459044
8 2 0.629776 0.862364 0.0576938
9 2 0.610327 0.865559 0.0641605
10 2 0.594589 0.877308 0.0396531
11 2 0.606249 0.87793 0.0585285
12 2 0.592937 0.885974 0.0618646
13 1 0.62034 0.862118 0.0372722
14 1 0.61282 0.860254 0.0462273
15 1 0.663341 0.834082 0.0463539
16 1 0.645693 0.844413 0.0470481
17 2 0.634032 0.821499 0.0600625
18 2 0.643004 0.851215 0.0434253
19 2 0.630686 0.859455 0.038327
20 2 0.65618 0.84187 0.0469478
21 2 0.641954 0.847037 0.0514881
22 2 0.617018 0.853005 0.0349781
23 2 0.63954 0.83557 0.0460375
24 2 0.615587 0.862974 0.0416606
25 1 0.638098 0.837817 0.032818
26 1 0.636434 0.85074 0.0395145
27 1 0.667482 0.804162 0.0430493
28 1 0.665612 0.823816 0.0406413
29 2 0.657822 0.802488 0.0410222
30 2 0.670015 0.814271 0.0416977
31 2 0.643424 0.829402 0.0346702
32 2 0.658199 0.825664 0.0442038
33 2 0.670192 0.832887 0.0425341
34 2 0.638264 0.836057 0.0280012
35 2 0.660127 0.823931 0.0365643
36 2 0.641135 0.846401 0.0355568
37 1 0.650547 0.809522 0.0268028
38 1 0.650299 0.821035 0.0347448
39 1 0.684864 0.772524 0.0429931
40 1 0.678938 0.787231 0.0408957
41 2 0.669192 0.76825 0.049898
42 2 0.688527 0.782773 0.0421985
43 2 0.624888 0.824162 0.027752
44 2 0.67506 0.777787 0.0428676
45 2 0.675054 0.796527 0.0423922
46 2 0.625012 0.830896 0.0143435
47 2 0.675514 0.786042 0.0363846
48 2 0.651663 0.816933 0.0303384
49 1 0.658616 0.790702 0.0272269
50 1 0.667465 0.780177 0.0343673
51 1 0.682244 0.731829 0.0418388
52 1 0.67741 0.762311 0.0362429
53 2 0.662482 0.743264 0.0476316
54 2 0.678167 0.753214 0.0335788
55 2 0.66464 0.785235 0.0303088
56 2 0.68026 0.73806 0.0378939
57 2 0.685237 0.76696 0.0388424
58 2 0.659225 0.788043 0.0224034
59 2 0.671525 0.770026 0.0342268
60 2 0.657549 0.801246 0.0276678
61 1 0.641295 0.755772 0.0303833
62 1 0.652362 0.744416 0.0368184
63 1 0.667326 0.716632 0.0408111
64 1 0.673639 0.746213 0.0368166
65 2 0.652057 0.711694 0.0473854
66 2 0.663231 0.743684 0.0362759
67 2 0.642093 0.747456 0.0271788
68 2 0.657486 0.721184 0.0417387
69 2 0.675395 0.723475 0.0415107
70 2 0.643585 0.764733 0.0278768
71 2 0.673074 0.755397 0.0396258
72 2 0.647754 0.752025 0.0338925
73 1 0.644635 0.738951 0.0246322
74 1 0.648072 0.727404 0.0315425
75 1 0.649133 0.692747 0.0354346
76 1 0.659291 0.709772 0.0332596
77 2 0.641368 0.686569 0.0465993
78 2 0.662985 0.702864 0.0298442
79 2 0.623456 0.720175 0.0262151
80 2 0.652876 0.703008 0.0357919
81 2 0.666972 0.713055 0.0362713
82 2 0.64474 0.738881 0.0198424
83 2 0.65365 0.718401 0.0319484
84 2 0.650614 0.732717 0.0273292
85 1 0.620525 0.709679 0.0261399
86 1 0.630238 0.699557 0.0328578
87 1 0.63697 0.667103 0.0437355
88 1 0.664235 0.692319 0.0294951
89 2 0.63118 0.674614 0.0552056
90 2 0.671857 0.687443 0.0277423
91 2 0.621181 0.694032 0.0335505
92 2 0.645781 0.672297 0.0422593
93 2 0.656383 0.688685 0.0322221
94 2 0.619442 0.70601 0.0215989
95 2 0.639349 0.693846 0.0334217
96 2 0.628448 0.704875 0.0287173
97 1 0.600951 0.678058 0.0330958
98 1 0.613601 0.692609 0.0368794
99 1 0.624756 0.653515 0.0464227
100 1 0.619957 0.679435 0.0436687
101 2 0.594557 0.640631 0.0544969
102 2 0.63254 0.657171 0.0434058
103 2 0.599949 0.671691 0.0372128
104 2 0.623614 0.662589 0.0493728
105 2 0.628456 0.673291 0.042458
106 2 0.605985 0.686278 0.0352216
107 2 0.61065 0.673737 0.0435461
108 2 0.608618 0.701461 0.0384908
109 1 0.57209 0.664734 0.0426704
110 1 0.59325 0.679645 0.0492462
111 1 0.591693 0.638318 0.0498565
112 1 0.604484 0.65151 0.0458005
113 2 0.576761 0.629163 0.0654141
114 2 0.600862 0.658722 0.0425667
115 2 0.553249 0.644046 0.0543988
116 2 0.599075 0.642446 0.0467685
117 2 0.615057 0.65067 0.0449787
118 2 0.575894 0.65647 0.0317017
119 2 0.602594 0.657069 0.0499556
120 2 0.579046 0.663579 0.0389456
121 1 0.554489 0.886939 0.0506154
122 1 0.570888 0.876164 0.0524659
123 1 0.618609 0.86142 0.0664502
124 1 0.585214 0.883335 0.0650097
125 2 0.603571 0.861431 0.0801803
126 2 0.579661 0.87548 0.0627102
127 2 0.595066 0.891601 0.0542842
128 2 0.596901 0.863092 0.0593191
129 2 0.588312 0.878045 0.0690449
130 2 0.577535 0.884979 0.052783
131 2 0.578116 0.891382 0.0659109
132 2 0.562727 0.880387 0.0500122
133 1 0.576639 0.844697 0.0431149
134 1 0.587946 0.885691 0.0516721
135 1 0.631085 0.823347 0.0553542
136 1 0.622328 0.859752 0.0542625
137 2 0.626122 0.834992 0.0632347
138 2 0.620531 0.862538 0.0496212
139 2 0.611248 0.84941 0.0465231
140 2 0.636769 0.848781 0.0593711
141 2 0.625195 0.849286 0.0539133
142 2 0.581584 0.846032 0.0387882
143 2 0.613169 0.861992 0.0566073
144 2 0.588744 0.884291 0.0469294
145 1 0.590447 0.82305 0.0370556
146 1 0.611589 0.839152 0.0482506
147 1 0.646307 0.812955 0.0506878
148 1 0.629643 0.834022 0.0441225
149 2 0.634922 0.79891 0.0594077
150 2 0.629593 0.842939 0.041255
151 2 0.594958 0.823388 0.0413778
152 2 0.637346 0.818251 0.0522063
153 2 0.633377 0.833945 0.0551754
154 2 0.595064 0.829571 0.0337803
155 2 0.621876 0.835678 0.0474654
156 2 0.606191 0.831109 0.0460362
157 1 0.622197 0.816411 0.0397521
158 1 0.603698 0.821538 0.0440483
159 1 0.662178 0.776572 0.0494956
160 1 0.647683 0.806423 0.0415469
161 2 0.647962 0.788764 0.0574249
162 2 0.646747 0.813544 0.0379219
163 2 0.624959 0.806626 0.0415114
164 2 0.646777 0.811056 0.0459608
165 2 0.654814 0.818549 0.0525712
166 2 0.622745 0.816189 0.0348905
167 2 0.64005 0.798973 0.0417739
168 2 0.627847 0.824711 0.0418114
169 1 0.631162 0.778252 0.0392187
170 1 0.62962 0.797156 0.0427614
171 1 0.655268 0.747397 0.050757
172 1 0.652385 0.775833 0.0409517
173 2 0.634105 0.756121 0.0578419
174 2 0.65901 0.779506 0.0374606
175 2 0.627 0.770483 0.042077
176 2 0.652155 0.764937 0.041274
177 2 0.656252 0.77822 0.0454327
178 2 0.619183 0.807169 0.0278226
179 2 0.641968 0.778338 0.0400428
180 2 0.627255 0.78804 0.0403156
181 1 0.608001 0.752677 0.0333397
182 1 0.626991 0.761243 0.0445526
183 1 0.648279 0.71929 0.0442806
184 1 0.648064 0.756904 0.0439416
185 2 0.626234 0.727431 0.0598919
186 2 0.649334 0.747824 0.0412446
187 2 0.622767 0.752291 0.0426115
188 2 0.645997 0.741955 0.0507392
189 2 0.652598 0.756414 0.0483769
190 2 0.614921 0.760645 0.0344019
191 2 0.637615 0.758887 0.044766
192 2 0.598184 0.754311 0.0351244
193 1 0.618389 0.735008 0.0349665
194 1 0.622386 0.7415 0.0431693
195 1 0.632469 0.692116 0.0478053
196 1 0.638414 0.735113 0.0489754
197 2 0.617978 0.704903 0.0552185
198 2 0.64878 0.734792 0.0350866
199 2 0.637658 0.725597 0.0303875
200 2 0.640107 0.714843 0.0418669
201 2 0.644235 0.727898 0.0464622
202 2 0.623675 0.735022 0.0306937
203 2 0.630379 0.739174 0.0462863
204 2 0.624265 0.736213 0.0389601
205 1 0.600478 0.708157 0.039614
206 1 0.613301 0.713865 0.0457686
207 1 0.625532 0.678632 0.058921
208 1 0.631312 0.708691 0.0414822
209 2 0.605621 0.668085 0.0644986
210 2 0.630267 0.706051 0.036801
211 2 0.59244 0.702506 0.0417354
212 2 0.622126 0.688353 0.0576056
213 2 0.632178 0.699899 0.0443663
214 2 0.598861 0.714436 0.0357474
215 2 0.622328 0.713197 0.0432441
216 2 0.604689 0.714992 0.0429065
217 1 0.569896 0.685277 0.0457179
218 1 0.58816 0.697323 0.045589
219 1 0.596594 0.662148 0.0533305
220 1 0.601096 0.669394 0.0420053
221 2 0.607397 0.647689 0.0777869
222 2 0.618361 0.687322 0.0404741
223 2 0.584202 0.681971 0.0517174
224 2 0.598061 0.672771 0.0524201
225 2 0.624004 0.685083 0.0474547
226 2 0.578551 0.691934 0.0448193
227 2 0.593752 0.673776 0.0450659
228 2 0.586069 0.704471 0.0491563
229 1 0.543067 0.646953 0.0552318
230 1 0.562762 0.646026 0.0566417
231 1 0.569836 0.636388 0.0634428
232 1 0.577917 0.653615 0.0505511
233 2 0.556937 0.625926 0.0816497
234 2 0.57441 0.659172 0.0466948
235 2 0.545063 0.656333 0.0577208
236 2 0.565515 0.636874 0.0590229
237 2 0.586053 0.659749 0.0524015
238 2 0.546097 0.655313 0.0388522
239 2 0.570182 0.650541 0.0537273
240 2 0.57131 0.675364 0.0438472
241 1 0.534786 0.885225 0.0526213
242 1 0.553833 0.887571 0.0599966
243 1 0.585517 0.869278 0.0716055
244 1 0.567633 0.892402 0.0667521
245 2 0.589393 0.868847 0.0761484
246 2 0.560381 0.900662 0.0671588
247 2 0.567372 0.864819 0.064627
248 2 0.574601 0.868748 0.0714543
249 2 0.56571 0.887156 0.0709718
250 2 0.544721 0.882533 0.0512469
251 2 0.562521 0.887346 0.0629551
252 2 0.555762 0.890351 0.0553377
253 1 0.555579 0.855247 0.0535547
254 1 0.573512 0.86755 0.0608051
255 1 0.617414 0.841455 0.0634802
256 1 0.589663 0.856275 0.0573931
257 2 0.59496 0.843246 0.0701947
258 2 0.591657 0.877594 0.0545601
259 2 0.576519 0.868565 0.0501373
260 2 0.594799 0.84675 0.0578807
261 2 0.588214 0.859718 0.0695244
262 2 0.565358 0.829911 0.0502922
263 2 0.58001 0.859577 0.0592183
264 2 0.568849 0.872144 0.0568936
265 1 0.574715 0.826836 0.0481329
266 1 0.583628 0.860999 0.0486233
267 1 0.61335 0.814397 0.0576945
268 1 0.601692 0.838571 0.0568768
269 2 0.59381 0.812587 0.0648176
270 2 0.606845 0.839455 0.0526291
271 2 0.581219 0.824747 0.0519748
272 2 0.608387 0.819667 0.0612659
273 2 0.609968 0.839663 0.0600896
274 2 0.572149 0.82028 0.0443319
275 2 0.594864 0.829976 0.0567863
276 2 0.57819 0.835774 0.0457386
277 1 0.583552 0.810728 0.0634685
278 1 0.584656 0.825963 0.056622
279 1 0.62432 0.796892 0.0599531
280 1 0.603148 0.805403 0.0504966
281 2 0.618564 0.776097 0.0679879
282 2 0.602333 0.813283 0.0471762
283 2 0.582176 0.800555 0.0622165
284 2 0.611249 0.798243 0.0497433
285 2 0.606177 0.810487 0.0545867
286 2 0.566606 0.812564 0.0366836
287 2 0.594549 0.799094 0.0512881
288 2 0.582981 0.817291 0.059479
289 1 0.591553 0.790309 0.0537383
290 1 0.584559 0.790708 0.0605034
291 1 0.632501 0.76684 0.0585402
292 1 0.61976 0.79178 0.0506814
293 2 0.637413 0.750137 0.0741849
294 2 0.627338 0.795134 0.0474959
295 2 0.594967 0.781291 0.0515802
296 2 0.618094 0.781227 0.0499923
297 2 0.621858 0.792641 0.0555133
298 2 0.580392 0.777125 0.0294168
299 2 0.582599 0.782871 0.0632778
300 2 0.594896 0.791216 0.0584281
301 1 0.594816 0.759484 0.0458078
302 1 0.598639 0.771547 0.0505678
303 1 0.615658 0.729701 0.0605337
304 1 0.618213 0.771102 0.0517951
305 2 0.615753 0.756715 0.0663089
306 2 0.621985 0.763673 0.0486927
307 2 0.599453 0.749946 0.0466281
308 2 0.612204 0.739095 0.0445379
309 2 0.625419 0.770876 0.0553993
310 2 0.591126 0.763653 0.0500572
311 2 0.607786 0.769475 0.0529433
312 2 0.601227 0.768435 0.0458897
313 1 0.588621 0.734518 0.0387875
314 1 0.601819 0.739391 0.04608
315 1 0.607992 0.705413 0.0533444
316 1 0.606978 0.725526 0.0523577
317 2 0.606872 0.703348 0.0625094
318 2 0.613962 0.721822 0.048985
319 2 0.594541 0.71394 0.0639003
320 2 0.610482 0.7215 0.0626569
321 2 0.611451 0.730405 0.0560946
322 2 0.611801 0.743434 0.0350988
323 2 0.601036 0.732695 0.0499072
324 2 0.59465 0.73605 0.042739
325 1 0.579922 0.706903 0.0530688
326 1 0.586286 0.708657 0.0617325
327 1 0.59896 0.676538 0.0647672
328 1 0.601015 0.695296 0.0605242
329 2 0.583984 0.686132 0.0725993
330 2 0.610373 0.70521 0.0485376
331 2 0.576477 0.696907 0.0544076
332 2 0.602842 0.68571 0.062582
333 2 0.602559 0.697574 0.0557154
334 2 0.578411 0.713661 0.0329218
335 2 0.590764 0.698508 0.061529
336 2 0.584638 0.710947 0.0570102
337 1 0.542908 0.691379 0.0559818
338 1 0.575541 0.686129 0.0540872
339 1 0.576766 0.656155 0.0644338
340 1 0.578965 0.675162 0.0619781
341 2 0.570463 0.657034 0.0683047
342 2 0.594943 0.689632 0.0473217
343 2 0.540294 0.683994 0.0650416
344 2 0.576052 0.664782 0.0616353
345 2 0.589779 0.675261 0.0622265
346 2 0.568325 0.684634 0.0505179
347 2 0.575044 0.68107 0.0583133
348 2 0.547008 0.701211 0.056717
349 1 0.538819 0.65128 0.0686938
350 1 0.549522 0.680228 0.0630231
351 1 0.549697 0.632023 0.07917
352 1 0.551106 0.658928 0.0616666
353 2 0.558296 0.626446 0.0925557
354 2 0.559861 0.653355 0.0601649
355 2 0.536629 0.653562 0.0805825
356 2 0.549649 0.642733 0.0797786
357 2 0.575268 0.645889 0.0630417
358 2 0.519885 0.655672 0.0487504
359 2 0.55592 0.68364 0.066645
360 2 0.546633 0.654365 0.0656199
361 1 0.521713 0.907356 0.0614391
362 1 0.531124 0.901703 0.0695449
363 1 0.556365 0.882402 0.072236
364 1 0.549628 0.898189 0.0671031
365 2 0.541726 0.867835 0.0774678
366 2 0.547977 0.895183 0.0624355
367 2 0.532778 0.881536 0.057018
368 2 0.529645 0.874362 0.0722292
369 2 0.549806 0.888843 0.0696896
370 2 0.528063 0.90766 0.0574298
371 2 0.541759 0.903998 0.0690623
372 2 0.5263 0.907112 0.0658101
373 1 0.534822 0.858456 0.0538813
374 1 0.537522 0.874516 0.0601005
375 1 0.586127 0.849078 0.0693219
376 1 0.565217 0.865391 0.0693717
377 2 0.577934 0.847416 0.0724818
378 2 0.565446 0.841149 0.0626145
379 2 0.547882 0.843346 0.0631757
380 2 0.563363 0.855956 0.0714758
381 2 0.55752 0.872546 0.0704023
382 2 0.53163 0.864715 0.0501333
383 2 0.547764 0.878493 0.0601505
384 2 0.536034 0.864984 0.0578249
385 1 0.557882 0.83683 0.0516223
386 1 0.556463 0.843808 0.0603082
387 1 0.573745 0.822289 0.0700934
388 1 0.575585 0.837828 0.0633404
389 2 0.545999 0.822917 0.0921195
390 2 0.587959 0.856868 0.0525857
391 2 0.561541 0.847201 0.0516224
392 2 0.575615 0.830598 0.0669938
393 2 0.581972 0.845626 0.065111
394 2 0.557434 0.85363 0.0582392
395 2 0.5789 0.833533 0.0591342
396 2 0.555044 0.837097 0.0563864
397 1 0.54759 0.712044 0.0570516
398 1 0.550966 0.713844 0.0664474
399 1 0.575062 0.686284 0.0699757
400 1 0.569668 0.706016 0.0673644
401 2 0.560218 0.692876 0.0806173
402 2 0.576807 0.709296 0.0639808
403 2 0.540839 0.712424 0.0681576
404 2 0.572803 0.695954 0.0682231
405 2 0.569919 0.711878 0.0714009
406 2 0.554671 0.71513 0.0535638
407 2 0.559024 0.706233 0.0661218
408 2 0.549597 0.715612 0.0615766
409 1 0.53204 0.688909 0.0673344
410 1 0.530155 0.710277 0.068228
411 1 0.557141 0.66904 0.0768758
412 1 0.556037 0.684324 0.0715127
413 2 0.546341 0.65471 0.0870018
414 2 0.549184 0.684583 0.0585327
415 2 0.532142 0.659229 0.0699799
416 2 0.552113 0.675337 0.0735694
417 2 0.576204 0.679243 0.0662955
418 2 0.531056 0.699636 0.0670621
419 2 0.566528 0.683679 0.0726272
420 2 0.525343 0.717503 0.0651451
421 1 0.503044 0.635746 0.0698928
422 1 0.524809 0.662145 0.0732612
423 1 0.535049 0.631264 0.0858109
424 1 0.545136 0.651593 0.0777376
425 2 0.508264 0.631799 0.0892448
426 2 0.542716 0.648681 0.0731156
427 2 0.503733 0.629898 0.0740716
428 2 0.540222 0.629196 0.0814545
429 2 0.550768 0.660622 0.0778775
430 2 0.537216 0.641382 0.0584824
431 2 0.528888 0.670186 0.0758489
432 2 0.516197 0.666015 0.0709172
433 1 0.495385 0.899178 0.0716923
434 1 0.520382 0.897485 0.077661
435 1 0.531355 0.8712 0.0767496
436 1 0.522694 0.89425 0.0868514
437 2 0.532254 0.869899 0.0922152
438 2 0.52624 0.902038 0.0739837
439 2 0.504805 0.894171 0.0706852
440 2 0.528185 0.885574 0.0885776
441 2 0.523006 0.900867 0.0907522
442 2 0.484813 0.894733 0.0641692
443 2 0.524629 0.89662 0.0821948
444 2 0.510903 0.902139 0.0789427
445 1 0.515028 0.855741 0.064559
446 1 0.510655 0.885189 0.0714639
447 1 0.567672 0.847796 0.0740232
448 1 0.528136 0.880436 0.0681598
449 2 0.552741 0.843649 0.0821059
450 2 0.531057 0.890936 0.0685315
451 2 0.520991 0.855159 0.0685886
452 2 0.533023 0.875611 0.0644499
453 2 0.535797 0.855822 0.0963522
454 2 0.5135 0.864795 0.0620569
455 2 0.517431 0.881834 0.0680477
456 2 0.504308 0.876557 0.0721113
457 1 0.541033 0.83812 0.0660489
458 1 0.525558 0.846789 0.0709791
459 1 0.549262 0.833399 0.0812203
460 1 0.555404 0.830351 0.0722165
461 2 0.538512 0.833518 0.0824255
462 2 0.562949 0.822893 0.0711056
463 2 0.535058 0.844098 0.0691388
464 2 0.550579 0.830006 0.0766336
465 2 0.56182 0.839102 0.072878
466 2 0.532721 0.834888 0.0631008
467 2 0.547593 0.831854 0.0688127
468 2 0.527242 0.850847 0.0540935
469 1 0.517724 0.722518 0.0624145
470 1 0.512969 0.708337 0.0739905
471 1 0.5535 0.699146 0.0778499
472 1 0.561961 0.717193 0.0739356
473 2 0.527118 0.694818 0.0838739
474 2 0.55567 0.71975 0.0699163
475 2 0.510279 0.697776 0.0732481
476 2 0.552213 0.693081 0.0737176
477 2 0.564668 0.725036 0.0766165
478 2 0.521306 0.720219 0.0578663
479 2 0.522836 0.710065 0.0719182
480 2 0.514657 0.733326 0.0624755
481 1 0.508254 0.671072 0.0685978
482 1 0.509903 0.687486 0.0746764
483 1 0.536214 0.652523 0.0853915
484 1 0.529941 0.680907 0.0761682
485 2 0.51555 0.663571 0.0928247
486 2 0.532679 0.685164 0.0718367
487 2 0.501829 0.670329 0.0821008
488 2 0.520285 0.653496 0.0754409
489 2 0.536114 0.684016 0.0798722
490 2 0.523763 0.685711 0.0645238
491 2 0.519767 0.684688 0.0763027
492 2 0.507452 0.680385 0.0710754
493 1 0.499992 0.634329 0.0783114
494 1 0.496286 0.664293 0.0789159
495 1 0.500012 0.626187 0.087039
496 1 0.510148 0.650174 0.0758065
497 2 0.490286 0.627082 0.0893451
498 2 0.507 0.645168 0.0717001
499 2 0.498807 0.628892 0.082401
500 2 0.507134 0.642418 0.0789996
501 2 0.533845 0.64198 0.0860183
502 2 0.519327 0.640777 0.0604045
503 2 0.503824 0.658523 0.0767365
504 2 0.490604 0.671295 0.0762756
505 1 0.500559 0.90021 0.0800561
506 1 0.492453 0.905234 0.0886197
507 1 0.525915 0.878597 0.0921604
508 1 0.504973 0.916213 0.094535
509 2 0.527303 0.8993 0.0986148
510 2 0.500379 0.908275 0.0915588
511 2 0.498831 0.88941 0.0800726
512 2 0.514833 0.912205 0.0956447
513 2 0.504156 0.92535 0.092519
514 2 0.495219 0.903263 0.0760922
515 2 0.498178 0.914436 0.098358
516 2 0.496372 0.903394 0.084238
517 1 0.498424 0.868679 0.0739734
518 1 0.4943 0.880206 0.0816852
519 1 0.531468 0.83884 0.0853001
520 1 0.506722 0.882409 0.0892551
521 2 0.538582 0.846605 0.102905
522 2 0.516754 0.888202 0.075396
523 2 0.503411 0.859171 0.0746865
524 2 0.515183 0.876932 0.0912904
525 2 0.512319 0.890407 0.0871161
526 2 0.504508 0.853278 0.0654323
527 2 0.499907 0.878599 0.085899
528 2 0.496337 0.872466 0.078461
529 1 0.497261 0.83446 0.071674
530 1 0.502894 0.850534 0.0776231
531 1 0.555521 0.818266 0.0933382
532 1 0.52293 0.853407 0.0798187
533 2 0.541877 0.836017 0.0968237
534 2 0.526093 0.848818 0.075661
535 2 0.486764 0.83501 0.0710796
536 2 0.528203 0.848202 0.0834147
537 2 0.524969 0.864046 0.0790142
538 2 0.504957 0.826913 0.071192
539 2 0.512312 0.850835 0.080009
540 2 0.518374 0.838518 0.0702137
541 1 0.474256 0.720288 0.0825499
542 1 0.490077 0.708756 0.0850971
543 1 0.518749 0.691932 0.0866294
544 1 0.510822 0.709706 0.0836805
545 2 0.513136 0.696639 0.0974155
546 2 0.512976 0.709316 0.0788133
547 2 0.471389 0.695077 0.0832056
548 2 0.511628 0.699676 0.0857693
549 2 0.516527 0.716388 0.0861192
550 2 0.505537 0.714598 0.0715916
551 2 0.500051 0.711016 0.0839527
552 2 0.483684 0.715587 0.0825527
553 1 0.484753 0.679643 0.0747021
554 1 0.481063 0.690082 0.0824145
555 1 0.505243 0.663206 0.0940424
556 1 0.504145 0.680682 0.0830872
557 2 0.485262 0.655864 0.0944509
558 2 0.504102 0.685612 0.0787365
559 2 0.489127 0.657708 0.0810311
560 2 0.499745 0.671574 0.0923924
561 2 0.513647 0.682847 0.085181
562 2 0.487956 0.682869 0.0703185
563 2 0.48706 0.698416 0.0841627
564 2 0.484963 0.687606 0.0780097
565 1 0.463944 0.655139 0.0806011
566 1 0.482124 0.654213 0.0842939
567 1 0.482569 0.631084 0.0923351
568 1 0.491456 0.649392 0.0918923
569 2 0.457523 0.633079 0.103566
570 2 0.490458 0.638568 0.0767426
571 2 0.480151 0.624639 0.0961259
572 2 0.48909 0.63976 0.094326
573 2 0.501052 0.65379 0.0922377
574 2 0.475273 0.642293 0.0719754
575 2 0.48743 0.648079 0.087502
576 2 0.472851 0.650343 0.0825551
577 1 0.467627 0.896242 0.0896096
578 1 0.476742 0.913822 0.092084
579 1 0.5198 0.902773 0.0954153
580 1 0.490113 0.907721 0.0992219
581 2 0.518018 0.88021 0.110192
582 2 0.48456 0.912645 0.0888212
583 2 0.471975 0.892763 0.0855511
584 2 0.487423 0.895937 0.0904573
585 2 0.472473 0.891243 0.0937507
586 2 0.470591 0.890491 0.0776439
587 2 0.471582 0.922719 0.0935433
588 2 0.469283 0.906511 0.090605
589 1 0.459519 0.869742 0.0810028
590 1 0.473212 0.885699 0.0818642
591 1 0.533327 0.855247 0.101226
592 1 0.502346 0.890674 0.0973297
593 2 0.509084 0.865384 0.100969
594 2 0.48353 0.882207 0.0816363
595 2 0.463953 0.860628 0.0827463
596 2 0.500495 0.88561 0.0930024
597 2 0.511643 0.895681 0.0964672
598 2 0.459992 0.871662 0.0762571
599 2 0.50364 0.882662 0.100481
600 2 0.465855 0.877791 0.0827256
601 1 0.485132 0.856804 0.0818611
602 1 0.482916 0.868086 0.0893811
603 1 0.539077 0.830866 0.0928604
604 1 0.519342 0.830704 0.0916927
605 2 0.513951 0.829827 0.102405
606 2 0.500729 0.841749 0.0748508
607 2 0.494119 0.851916 0.0803966
608 2 0.522037 0.834251 0.08736
609 2 0.528572 0.827438 0.0933614
610 2 0.480313 0.861023 0.0779191
611 2 0.511365 0.832059 0.094699
612 2 0.487327 0.864202 0.0853269
613 1 0.464572 0.703268 0.0829293
614 1 0.467302 0.733597 0.0794442
615 1 0.502183 0.695874 0.0972857
616 1 0.487806 0.71023 0.0946616
617 2 0.488641 0.700452 0.106792
618 2 0.488249 0.710565 0.089881
619 2 0.484337 0.679514 0.092162
620 2 0.496327 0.704871 0.0963867
621 2 0.484362 0.719001 0.0972609
622 2 0.463712 0.704712 0.0780961
623 2 0.473182 0.731021 0.083442
624 2 0.468436 0.712644 0.0847191
625 1 0.472103 0.671593 0.0852151
626 1 0.474102 0.677224 0.0934817
627 1 0.476655 0.658298 0.097151
628 1 0.494837 0.680891 0.0911989
629 2 0.467921 0.665576 0.106469
630 2 0.496656 0.682893 0.0864842
631 2 0.453221 0.666048 0.0896647
632 2 0.47282 0.667444 0.0954659
633 2 0.499261 0.688771 0.0938462
634 2 0.47885 0.663409 0.0865201
635 2 0.468551 0.676371 0.0892864
636 2 0.451739 0.678893 0.0844888
637 1 0.443898 0.64855 0.0829079
638 1 0.450491 0.65594 0.0907291
639 1 0.451265 0.637738 0.100252
640 1 0.464981 0.642679 0.0935346
641 2 0.449951 0.648116 0.101634
642 2 0.45924 0.649255 0.0906429
643 2 0.439 0.638951 0.0817423
644 2 0.457471 0.63757 0.0961732
645 2 0.47315 0.636445 0.0916269
646 2 0.454286 0.650806 0.0817606
647 2 0.470315 0.649634 0.0964769
648 2 0.443504 0.652105 0.0874088
649 1 0.452922 0.906415 0.0979131
650 1 0.449852 0.930734 0.101888
651 1 0.508331 0.87707 0.111632
652 1 0.465142 0.92439 0.0973009
653 2 0.487198 0.910935 0.111338
654 2 0.456802 0.931249 0.0982315
655 2 0.459291 0.89758 0.0986688
656 2 0.481876 0.909672 0.0960673
657 2 0.470695 0.925681 0.101489
658 2 0.459814 0.914809 0.0977386
659 2 0.456226 0.924489 0.105408
660 2 0.444623 0.909857 0.10063
661 1 0.436641 0.879332 0.093343
662 1 0.466117 0.88918 0.098029
663 1 0.50234 0.873093 0.10267
664 1 0.483211 0.887222 0.0926943
665 2 0.491155 0.870508 0.113999
666 2 0.481743 0.878839 0.0896674
667 2 0.444562 0.875252 0.0962352
668 2 0.494366 0.897595 0.0985313
669 2 0.503346 0.874742 0.107415
670 2 0.434362 0.87237 0.0897905
671 2 0.460997 0.880118 0.0968725
672 2 0.440645 0.888686 0.0914819
673 1 0.457696 0.852748 0.0934626
674 1 0.454444 0.871387 0.096992
675 1 0.508097 0.835822 0.0992694
676 1 0.484748 0.870356 0.0980924
677 2 0.486937 0.847958 0.105935
678 2 0.487332 0.865921 0.0937221
679 2 0.464733 0.852303 0.0971796
680 2 0.473463 0.862931 0.0891496
681 2 0.492551 0.869595 0.10131
682 2 0.462245 0.850116 0.0892401
683 2 0.484221 0.880988 0.0967093
684 2 0.455681 0.863644 0.0935541
685 1 0.443497 0.71008 0.0932828
686 1 0.455164 0.718169 0.100458
687 1 0.478024 0.701942 0.106361
688 1 0.475477 0.714536 0.0993388
689 2 0.460619 0.720878 0.120248
690 2 0.478153 0.706127 0.0963137
691 2 0.44621 0.699716 0.0938791
692 2 0.476715 0.711105 0.103859
693 2 0.450824 0.725888 0.103454
694 2 0.44348 0.712027 0.0884398
695 2 0.465568 0.718549 0.0992258
696 2 0.449682 0.715656 0.096451
697 1 0.45028 0.676491 0.0892777
698 1 0.450118 0.691281 0.0963113
699 1 0.458924 0.670767 0.104953
700 1 0.466969 0.68852 0.100828
701 2 0.439917 0.672334 0.114728
702 2 0.47181 0.683967 0.0970206
703 2 0.416502 0.649823 0.102898
704 2 0.462243 0.680446 0.103358
705 2 0.473677 0.694061 0.103623
706 2 0.478035 0.679633 0.0833971
707 2 0.459059 0.694182 0.0987215
708 2 0.452349 0.683348 0.093049
709 1 0.431452 0.63709 0.101749
710 1 0.426593 0.656689 0.10261
711 1 0.434231 0.636055 0.111423
712 1 0.446495 0.657934 0.100093
713 2 0.432596 0.636084 0.106625
714 2 0.446803 0.656447 0.0952381
715 2 0.441115 0.633741 0.0999511
716 2 0.437212 0.661651 0.101677
717 2 0.454267 0.665086 0.10138
718 2 0.43743 0.651961 0.0792446
719 2 0.42148 0.665486 0.100633
720 2 0.431184 0.647504 0.100556
721 1 0.435641 0.916213 0.101054
722 1 0.455077 0.932906 0.109233
723 1 0.480465 0.908211 0.107799
724 1 0.467772 0.924038 0.106019
725 2 0.469335 0.901391 0.117311
726 2 0.44995 0.937819 0.105619
727 2 0.437251 0.900097 0.107158
728 2 0.485674 0.908539 0.103566
729 2 0.472035 0.91515 0.107649
730 2 0.428042 0.913323 0.0979108
731 2 0.450399 0.928686 0.113001
732 2 0.440737 0.925909 0.100892
733 1 0.424578 0.886331 0.100233
734 1 0.437697 0.889348 0.107474
735 1 0.482086 0.87196 0.111471
736 1 0.474101 0.887972 0.106924
737 2 0.460531 0.868358 0.119333
738 2 0.471758 0.888216 0.102109
739 2 0.420823 0.855173 0.0987192
740 2 0.481044 0.88033 0.108404
741 2 0.477172 0.897958 0.108088
742 2 0.423438 0.896792 0.0990898
743 2 0.464839 0.885803 0.109189
744 2 0.432229 0.885461 0.103737
745 1 0.423259 0.844514 0.0998595
746 1 0.435511 0.853662 0.104886
747 1 0.478112 0.852311 0.108032
748 1 0.467173 0.859092 0.100837
749 2 0.464799 0.843116 0.118606
750 2 0.458438 0.865763 0.100843
751 2 0.428442 0.845396 0.104102
752 2 0.475548 0.865656 0.0995126
753 2 0.480506 0.862561 0.109204
754 2 0.430894 0.842256 0.0966647
755 2 0.470081 0.853728 0.104804
756 2 0.439267 0.854633 0.100277
757 1 0.41915 0.703639 0.101459
758 1 0.427323 0.713748 0.107903
759 1 0.435644 0.711327 0.118559
760 1 0.448197 0.719584 0.107366
761 2 0.417774 0.708661 0.116973
762 2 0.453175 0.711915 0.104517
763 2 0.427788 0.696918 0.101627
764 2 0.445485 0.715501 0.118477
765 2 0.452125 0.721904 0.1118
766 2 0.417411 0.707231 0.0969249
767 2 0.437691 0.717038 0.10779
768 2 0.422636 0.712631 0.103674
769 1 0.42318 0.675925 0.100125
770 1 0.43531 0.689727 0.103299
771 1 0.430051 0.676201 0.115755
772 1 0.432951 0.695921 0.112025
773 2 0.412879 0.665814 0.123176
774 2 0.436763 0.702894 0.11541
775 2 0.39782 0.663482 0.102676
776 2 0.429865 0.686864 0.114456
777 2 0.426808 0.703564 0.109771
778 2 0.427031 0.678143 0.0956314
779 2 0.438038 0.692439 0.107918
780 2 0.443064 0.689055 0.0999126
781 1 0.400906 0.64047 0.109182
782 1 0.400816 0.661213 0.107224
783 1 0.41691 0.642691 0.115426
784 1 0.42028 0.661046 0.111079
785 2 0.424794 0.636282 0.113798
786 2 0.426903 0.657786 0.107597
787 2 0.407983 0.640985 0.11286
788 2 0.419272 0.653134 0.114485
789 2 0.423261 0.670327 0.113095
790 2 0.406149 0.636846 0.105255
791 2 0.41065 0.662541 0.108998
792 2 0.398274 0.650775 0.107948
793 1 0.398898 0.895922 0.109365
794 1 0.4335 0.909126 0.109224
795 1 0.458797 0.902812 0.11706
796 1 0.446874 0.919336 0.115005
797 2 0.455239 0.900331 0.121509
798 2 0.465785 0.932262 0.109078
799 2 0.417476 0.890697 0.109737
800 2 0.45524 0.91276 0.115966
801 2 0.440277 0.91932 0.118814
802 2 0.402273 0.901779 0.105572
803 2 0.441183 0.91449 0.111526
804 2 0.430942 0.91519 0.105422
805 1 0.41231 0.882837 0.107255
806 1 0.423977 0.894187 0.113249
807 1 0.450978 0.869566 0.117109
808 1 0.455218 0.886281 0.111297
809 2 0.437791 0.873937 0.127814
810 2 0.447842 0.886366 0.10775
811 2 0.41578 0.873277 0.108791
812 2 0.452764 0.8781 0.114192
813 2 0.454837 0.895619 0.113848
814 2 0.383313 0.870253 0.104908
815 2 0.432948 0.888459 0.111917
816 2 0.418914 0.857939 0.112499
817 1 0.41875 0.86302 0.108265
818 1 0.423684 0.853954 0.116358
819 1 0.454628 0.843434 0.120034
820 1 0.443767 0.85158 0.113345
821 2 0.438649 0.845524 0.128129
822 2 0.442351 0.851232 0.108487
823 2 0.42898 0.86168 0.106493
824 2 0.448849 0.843932 0.115957
825 2 0.448966 0.860791 0.114411
826 2 0.411969 0.858457 0.105097
827 2 0.433786 0.852087 0.115222
828 2 0.402262 0.885837 0.108278
829 1 0.389109 0.707771 0.110832
830 1 0.399719 0.718564 0.11747
831 1 0.411422 0.702817 0.119731
832 1 0.419191 0.719087 0.115508
833 2 0.398164 0.698441 0.127799
834 2 0.421271 0.719776 0.110826
835 2 0.384776 0.700611 0.114058
836 2 0.402808 0.709355 0.119743
837 2 0.429028 0.719774 0.117466
838 2 0.395781 0.70172 0.108043
839 2 0.409507 0.723143 0.116667
840 2 0.394724 0.715104 0.113436
841 1 0.397152 0.678532 0.111738
842 1 0.384335 0.690809 0.116139
843 1 0.403575 0.660697 0.123654
844 1 0.4024 0.685536 0.119455
845 2 0.39146 0.679334 0.130673
846 2 0.40184 0.677808 0.116177
847 2 0.402618 0.685869 0.109069
848 2 0.405621 0.684945 0.124055
849 2 0.408688 0.693449 0.117738
850 2 0.395604 0.668855 0.109862
851 2 0.392329 0.68965 0.11942
852 2 0.387839 0.683733 0.112767
853 1 0.384599 0.638224 0.114047
854 1 0.371605 0.662939 0.112846
855 1 0.382676 0.640721 0.12324
856 1 0.3873 0.656736 0.118036
857 2 0.373258 0.640539 0.125601
858 2 0.379802 0.663162 0.116101
859 2 0.383506 0.635545 0.118899
860 2 0.383138 0.651244 0.121841
861 2 0.396912 0.659712 0.119875
862 2 0.392457 0.635002 0.111057
863 2 0.375132 0.676477 0.130161
864 2 0.387929 0.648508 0.11493
865 1 0.399952 0.90066 0.118343
866 1 0.415749 0.908785 0.12398
867 1 0.446981 0.897151 0.124257
868 1 0.435741 0.914514 0.122691
869 2 0.394469 0.914748 0.13134
870 2 0.426569 0.904621 0.11239
871 2 0.399214 0.890154 0.119746
872 2 0.439244 0.904128 0.122859
873 2 0.42494 0.914088 0.122708
874 2 0.402147 0.900084 0.113617
875 2 0.419593 0.898639 0.124886
876 2 0.407649 0.906138 0.120836
877 1 0.377957 0.899293 0.109514
878 1 0.400788 0.882163 0.122984
879 1 0.431972 0.870128 0.131504
880 1 0.420204 0.889191 0.122438
881 2 0.427778 0.872497 0.142575
882 2 0.420556 0.892205 0.117691
883 2 0.398642 0.871661 0.122273
884 2 0.421928 0.860071 0.120387
885 2 0.428887 0.88303 0.122858
886 2 0.373633 0.894683 0.105552
887 2 0.41144 0.88357 0.123622
888 2 0.388197 0.896436 0.109696
889 1 0.380025 0.866345 0.117865
890 1 0.396022 0.861086 0.12274
891 1 0.42915 0.849139 0.129828
892 1 0.415633 0.852472 0.122676