ITEM: TIMESTEP
120077
ITEM: NUMBER OF ATOMS
81498
ITEM: BOX BOUNDS pp pp pp
-2.3479925760796185e+01 1.2518448576036795e+02
-4.8906631342551719e+01 9.9758904342551716e+01
1.5926930841752096e+00 3.3204041991582869e+02
ITEM: ATOMS id type xs ys zs
1 1 0.688784 0.863239 0.0216025
2 1 0.700006 0.863442 0.0369335
3 1 0.744447 0.843222 0.0374507
4 1 0.709593 0.849805 0.0392016
5 2 0.728759 0.858008 0.0458341
6 3 0.710403 0.859614 0.0357638
7 2 0.709417 0.853598 0.0301185
8 2 0.734473 0.839486 0.0360566
9 2 0.713452 0.854692 0.0431954
10 2 0.695301 0.868534 0.0184538
11 2 0.698876 0.853079 0.0384461
12 2 0.693951 0.867873 0.0336676
13 1 0.725534 0.84152 0.0224353
14 1 0.714964 0.844774 0.0306546
15 1 0.766333 0.823999 0.0295848
16 1 0.754059 0.840409 0.0299377
17 2 0.758171 0.821315 0.0429931
18 2 0.75194 0.843035 0.0252466
19 2 0.73603 0.838797 0.0222443
20 2 0.763283 0.834505 0.0298928
21 2 0.750983 0.846248 0.0337732
22 2 0.724946 0.848445 0.0185518
23 2 0.746868 0.832287 0.0304713
24 2 0.722266 0.843933 0.02699
25 1 0.754929 0.832445 0.0133974
26 1 0.746677 0.837111 0.0218501
27 1 0.78722 0.80156 0.0243578
28 1 0.777049 0.814287 0.0226112
29 2 0.771952 0.789919 0.0301845
30 2 0.787503 0.81248 0.0239406
31 2 0.758582 0.822907 0.0148618
32 2 0.776547 0.803277 0.023285
33 2 0.771387 0.820665 0.025505
34 2 0.760585 0.836237 0.00955773
35 2 0.773222 0.815942 0.0181737
36 2 0.750871 0.837319 0.0172876
37 1 0.75715 0.80411 0.00877904
38 1 0.763733 0.8136 0.0160728
39 1 0.79782 0.77147 0.0205827
40 1 0.792296 0.786504 0.0187635
41 2 0.786125 0.762326 0.0278448
42 2 0.801325 0.780356 0.0181525
43 2 0.74803 0.809299 0.0101265
44 2 0.789625 0.778237 0.0218841
45 2 0.792169 0.79597 0.020864
46 2 0.755299 0.813448 0.996388
47 2 0.78481 0.785124 0.0153533
48 2 0.764387 0.807865 0.0119739
49 1 0.758506 0.783064 0.010294
50 1 0.776742 0.778344 0.0142253
51 1 0.791275 0.730231 0.0182742
52 1 0.787314 0.761027 0.0138812
53 2 0.779522 0.742587 0.0265059
54 2 0.790683 0.753404 0.0107171
55 2 0.768982 0.782487 0.0115506
56 2 0.791612 0.737519 0.0146966
57 2 0.79392 0.764338 0.0173213
58 2 0.757702 0.777767 0.00610367
59 2 0.781547 0.769293 0.0124535
60 2 0.756089 0.793493 0.00958169
61 1 0.755247 0.753604 0.00897483
62 1 0.770209 0.748072 0.0145917
63 1 0.784525 0.715378 0.0173459
64 1 0.78611 0.744417 0.0121848
65 2 0.771176 0.706664 0.0274465
66 2 0.775899 0.74179 0.0114271
67 2 0.751841 0.743169 0.00945671
68 2 0.781062 0.725822 0.0179107
69 2 0.794383 0.720006 0.0174847
70 2 0.759966 0.75517 0.0046265
71 2 0.780374 0.752639 0.0155345
72 2 0.763385 0.754235 0.0122239
73 1 0.751299 0.732432 0.00873807
74 1 0.756284 0.719313 0.0165244
75 1 0.770255 0.685331 0.0136328
76 1 0.770729 0.705641 0.0132626
77 2 0.767086 0.678571 0.0230667
78 2 0.765944 0.703651 0.00906272
79 2 0.758521 0.716865 0.99997
80 2 0.770856 0.695705 0.015238
81 2 0.780478 0.7102 0.013604
82 2 0.756092 0.730451 0.00444033
83 2 0.764237 0.712662 0.0154493
84 2 0.75447 0.72652 0.0127769
85 1 0.752713 0.70793 0.00123295
86 1 0.75055 0.685777 0.0137423
87 1 0.766386 0.65757 0.0217022
88 1 0.761474 0.694748 0.00699912
89 2 0.753956 0.672776 0.028962
90 2 0.757914 0.699261 0.00292828
91 2 0.742604 0.678604 0.0140201
92 2 0.773868 0.663938 0.0197228
93 2 0.768996 0.687421 0.00876124
94 2 0.746274 0.705661 0.997568
95 2 0.760327 0.681572 0.0146883
96 2 0.752801 0.691135 0.00958022
97 1 0.721121 0.660325 0.0114647
98 1 0.732722 0.676171 0.0123165
99 1 0.744261 0.639949 0.0256457
100 1 0.746319 0.657299 0.0212105
101 2 0.738144 0.644392 0.0293018
102 2 0.767691 0.647129 0.0231063
103 2 0.720443 0.658683 0.0164173
104 2 0.745849 0.646732 0.0219092
105 2 0.756488 0.659421 0.0199279
106 2 0.732784 0.682427 0.0083554
107 2 0.737199 0.660126 0.0190166
108 2 0.725047 0.679268 0.0156039
109 1 0.69313 0.642413 0.0245113
110 1 0.718901 0.662715 0.0285116
111 1 0.708402 0.630134 0.0236972
112 1 0.726414 0.636323 0.0230014
113 2 0.696999 0.607419 0.0470232
114 2 0.72726 0.6463 0.0209991
115 2 0.675778 0.62725 0.0313597
116 2 0.717966 0.630954 0.0213754
117 2 0.73677 0.633076 0.0238213
118 2 0.700774 0.640353 0.00997472
119 2 0.723192 0.638704 0.0275313
120 2 0.690613 0.652529 0.0232068
121 1 0.669192 0.880862 0.0306466
122 1 0.667731 0.878082 0.0395839
123 1 0.718289 0.860065 0.0469474
124 1 0.70026 0.86803 0.0458285
125 2 0.706474 0.849194 0.0566799
126 2 0.710768 0.86811 0.0470974
127 2 0.700199 0.869051 0.0410263
128 2 0.707197 0.839709 0.0410469
129 2 0.694954 0.858482 0.0469386
130 2 0.678898 0.876141 0.0303142
131 2 0.693903 0.875247 0.0481857
132 2 0.668491 0.884074 0.0354128
133 1 0.691917 0.842126 0.0202105
134 1 0.68611 0.868082 0.0303442
135 1 0.750682 0.828605 0.0438153
136 1 0.724928 0.838102 0.0382319
137 2 0.726083 0.815635 0.0430328
138 2 0.710041 0.835152 0.0309328
139 2 0.699622 0.824135 0.027466
140 2 0.727423 0.842107 0.042598
141 2 0.720631 0.828316 0.0387839
142 2 0.686935 0.84228 0.015872
143 2 0.717873 0.844867 0.035809
144 2 0.690502 0.867338 0.0259723
145 1 0.710393 0.834105 0.0173575
146 1 0.708358 0.824473 0.0302627
147 1 0.763794 0.796875 0.0309447
148 1 0.746398 0.822858 0.0280648
149 2 0.743358 0.782405 0.0316221
150 2 0.747781 0.826822 0.0234763
151 2 0.718209 0.821047 0.0287288
152 2 0.756313 0.819075 0.0293318
153 2 0.74919 0.835434 0.0401137
154 2 0.718523 0.833935 0.0206811
155 2 0.736482 0.819247 0.0288872
156 2 0.702429 0.840028 0.0192672
157 1 0.734282 0.807116 0.0205946
158 1 0.726795 0.815027 0.0277601
159 1 0.778438 0.769021 0.0294419
160 1 0.752875 0.801979 0.022854
161 2 0.759937 0.774861 0.0335953
162 2 0.758395 0.807405 0.0193967
163 2 0.731545 0.796679 0.0204925
164 2 0.758231 0.79964 0.0269186
165 2 0.769518 0.804888 0.032909
166 2 0.736567 0.809169 0.0160127
167 2 0.74774 0.792832 0.0214139
168 2 0.743551 0.807669 0.0233067
169 1 0.747877 0.774037 0.0176956
170 1 0.737683 0.788142 0.0213047
171 1 0.769763 0.740975 0.0283781
172 1 0.765489 0.770354 0.021776
173 2 0.752937 0.743884 0.0360325
174 2 0.77167 0.774433 0.0182119
175 2 0.743944 0.764041 0.0182935
176 2 0.76324 0.75982 0.0208349
177 2 0.770982 0.770363 0.0259226
178 2 0.732892 0.803806 0.00818168
179 2 0.755554 0.77463 0.0212545
180 2 0.739222 0.780337 0.018138
181 1 0.724549 0.75367 0.0137714
182 1 0.739593 0.755217 0.0203938
183 1 0.760429 0.706296 0.0277383
184 1 0.759275 0.74993 0.0216937
185 2 0.745656 0.714351 0.0353011
186 2 0.765171 0.744202 0.0184139
187 2 0.731445 0.751511 0.0175661
188 2 0.765452 0.7313 0.0271411
189 2 0.762474 0.747388 0.0261721
190 2 0.729902 0.761815 0.0116274
191 2 0.748679 0.74898 0.0208604
192 2 0.714254 0.755249 0.0153443
193 1 0.736791 0.716467 0.0164526
194 1 0.737219 0.728335 0.0236841
195 1 0.759314 0.680056 0.0262948
196 1 0.757071 0.725837 0.0255951
197 2 0.744939 0.687415 0.0331864
198 2 0.758411 0.723083 0.0210105
199 2 0.747022 0.713708 0.0173686
200 2 0.755757 0.702821 0.0237249
201 2 0.757023 0.716936 0.0289542
202 2 0.737041 0.715184 0.0116217
203 2 0.747156 0.730147 0.025573
204 2 0.737162 0.726041 0.0189008
205 1 0.717624 0.683853 0.0185903
206 1 0.728711 0.695402 0.0250818
207 1 0.746103 0.665696 0.0301134
208 1 0.748647 0.695615 0.021857
209 2 0.734595 0.653187 0.0389037
210 2 0.74881 0.693291 0.0171812
211 2 0.711616 0.677161 0.021372
212 2 0.738033 0.67258 0.0312252
213 2 0.751772 0.686309 0.0241162
214 2 0.717938 0.707803 0.0105296
215 2 0.738692 0.697824 0.0234082
216 2 0.723138 0.690447 0.0216368
217 1 0.686794 0.662744 0.0232896
218 1 0.704096 0.673304 0.0245245
219 1 0.727707 0.644051 0.0311543
220 1 0.727093 0.656954 0.0201887
221 2 0.719123 0.629256 0.0511425
222 2 0.730067 0.666038 0.0110081
223 2 0.686033 0.665008 0.0280496
224 2 0.723096 0.654 0.0308736
225 2 0.745118 0.660888 0.025832
226 2 0.695234 0.669616 0.022256
227 2 0.724375 0.662093 0.0242743
228 2 0.701958 0.681395 0.0277785
229 1 0.668216 0.627253 0.0349575
230 1 0.686024 0.630761 0.0317081
231 1 0.686975 0.610177 0.0455968
232 1 0.70526 0.62608 0.0323356
233 2 0.687164 0.625449 0.0556991
234 2 0.70367 0.639882 0.0248886
235 2 0.673769 0.622938 0.038637
236 2 0.681192 0.603004 0.0435529
237 2 0.706797 0.636522 0.0340252
238 2 0.677412 0.630894 0.0150435
239 2 0.694853 0.624697 0.0311358
240 2 0.688058 0.638982 0.0285753
241 1 0.655076 0.867882 0.0337767
242 1 0.655557 0.860938 0.0456344
243 1 0.68814 0.849886 0.0464726
244 1 0.685613 0.876936 0.0508509
245 2 0.690926 0.85743 0.0585908
246 2 0.662621 0.867631 0.0477277
247 2 0.676682 0.873277 0.0406736
248 2 0.679318 0.852426 0.0438494
249 2 0.686411 0.873117 0.055221
250 2 0.661644 0.87283 0.0306009
251 2 0.675843 0.879442 0.0497763
252 2 0.659998 0.870995 0.0379666
253 1 0.663435 0.837746 0.0273861
254 1 0.670435 0.849127 0.0414499
255 1 0.717354 0.821214 0.0421828
256 1 0.698202 0.833946 0.041947
257 2 0.702078 0.831054 0.052118
258 2 0.680778 0.858718 0.0311446
259 2 0.671227 0.844534 0.028917
260 2 0.69909 0.824618 0.0443447
261 2 0.683928 0.847507 0.0509116
262 2 0.658807 0.842273 0.0234638
263 2 0.692076 0.840841 0.0444971
264 2 0.661592 0.854461 0.0428747
265 1 0.685461 0.831171 0.0350372
266 1 0.677177 0.849101 0.0324096
267 1 0.733367 0.796643 0.0420289
268 1 0.706716 0.808437 0.0367074
269 2 0.710788 0.788806 0.0478292
270 2 0.706463 0.816808 0.033643
271 2 0.69788 0.80233 0.0367251
272 2 0.709403 0.814178 0.0408563
273 2 0.694533 0.831049 0.0375664
274 2 0.682767 0.82485 0.0313962
275 2 0.715075 0.801761 0.0355676
276 2 0.684329 0.841351 0.0334981
277 1 0.689871 0.794849 0.0373805
278 1 0.688333 0.799652 0.0460885
279 1 0.746522 0.780377 0.0431887
280 1 0.724726 0.798455 0.0337624
281 2 0.722542 0.775593 0.046183
282 2 0.726367 0.805493 0.0301209
283 2 0.695391 0.785441 0.0362744
284 2 0.726552 0.788188 0.0321915
285 2 0.731939 0.799578 0.0373793
286 2 0.697187 0.816304 0.0211275
287 2 0.70989 0.780755 0.0406036
288 2 0.687878 0.793388 0.0421892
289 1 0.703329 0.76253 0.0337497
290 1 0.702668 0.777669 0.0371434
291 1 0.749084 0.754005 0.0364422
292 1 0.733183 0.780969 0.0300157
293 2 0.730456 0.759358 0.0456903
294 2 0.734202 0.783632 0.0253514
295 2 0.710915 0.754755 0.0345116
296 2 0.731812 0.77018 0.030377
297 2 0.748339 0.77778 0.0385456
298 2 0.685278 0.773291 0.0139113
299 2 0.695407 0.796136 0.049458
300 2 0.698616 0.767308 0.0376292
301 1 0.701609 0.751788 0.026066
302 1 0.717323 0.749322 0.031389
303 1 0.735424 0.711378 0.036516
304 1 0.734968 0.759852 0.0297787
305 2 0.736668 0.738345 0.0520688
306 2 0.736774 0.757748 0.0250056
307 2 0.717361 0.738544 0.0306488
308 2 0.728764 0.73443 0.0248903
309 2 0.743785 0.75766 0.0325171
310 2 0.701692 0.75534 0.0215116
311 2 0.727261 0.753193 0.0314384
312 2 0.712314 0.751789 0.0272005
313 1 0.699783 0.732159 0.0231745
314 1 0.718463 0.73277 0.0265111
315 1 0.735436 0.682708 0.0321529
316 1 0.726291 0.714709 0.0283743
317 2 0.728564 0.682943 0.0362379
318 2 0.724683 0.704548 0.0269711
319 2 0.717248 0.693615 0.0397342
320 2 0.729276 0.71543 0.0330442
321 2 0.734785 0.718658 0.0257698
322 2 0.698027 0.74132 0.025953
323 2 0.718901 0.722157 0.0275398
324 2 0.710746 0.733982 0.0231489
325 1 0.6962 0.686579 0.0313566
326 1 0.707493 0.687887 0.0395227
327 1 0.724216 0.655203 0.0404347
328 1 0.720764 0.67394 0.0363321
329 2 0.705804 0.659468 0.0478232
330 2 0.730563 0.688301 0.0287321
331 2 0.689733 0.67853 0.0328277
332 2 0.723769 0.665649 0.0388956
333 2 0.720138 0.671036 0.0317098
334 2 0.700605 0.701653 0.0200068
335 2 0.712275 0.67842 0.0382853
336 2 0.702023 0.689867 0.0353268
337 1 0.664611 0.664707 0.0321535
338 1 0.684972 0.6688 0.0326025
339 1 0.712511 0.623493 0.0408252
340 1 0.707198 0.642299 0.0382283
341 2 0.689948 0.65824 0.0517959
342 2 0.70884 0.664965 0.0269651
343 2 0.661897 0.650877 0.0412822
344 2 0.708988 0.633976 0.0413377
345 2 0.715843 0.649226 0.038649
346 2 0.674308 0.669272 0.0328804
347 2 0.698132 0.648044 0.0387169
348 2 0.666804 0.683837 0.038158
349 1 0.652204 0.633469 0.044219
350 1 0.668951 0.648063 0.037754
351 1 0.678837 0.620905 0.0532478
352 1 0.682991 0.62673 0.0405827
353 2 0.680471 0.618824 0.0672678
354 2 0.686926 0.631891 0.036622
355 2 0.648454 0.639852 0.0549042
356 2 0.673837 0.629369 0.0510903
357 2 0.70851 0.620897 0.0363645
358 2 0.65931 0.639169 0.0260024
359 2 0.679329 0.650182 0.0388384
360 2 0.667716 0.63799 0.036128
361 1 0.641917 0.876675 0.0443916
362 1 0.647979 0.878086 0.0531148
363 1 0.683013 0.864749 0.0579033
364 1 0.665415 0.87794 0.0485305
365 2 0.677349 0.852414 0.0652217
366 2 0.647313 0.867224 0.0441752
367 2 0.651899 0.853699 0.0488932
368 2 0.674185 0.844779 0.0581106
369 2 0.66405 0.88207 0.0439855
370 2 0.642575 0.882072 0.0401581
371 2 0.6587 0.879552 0.0524271
372 2 0.645165 0.881252 0.0486113
373 1 0.647471 0.838325 0.041875
374 1 0.656023 0.843945 0.0499994
375 1 0.695323 0.823603 0.054004
376 1 0.675127 0.849 0.0536313
377 2 0.680666 0.808439 0.0588898
378 2 0.669618 0.838479 0.0426898
379 2 0.661847 0.822471 0.0406916
380 2 0.684486 0.82273 0.0544835
381 2 0.675993 0.859622 0.0549097
382 2 0.651433 0.84246 0.0378833
383 2 0.666358 0.845909 0.0511488
384 2 0.652899 0.838161 0.0461054
385 1 0.675149 0.819908 0.0286077
386 1 0.670926 0.827827 0.0419664
387 1 0.70627 0.797243 0.0501218
388 1 0.70148 0.814427 0.0460457
389 2 0.697144 0.803816 0.059818
390 2 0.671763 0.849819 0.0366551
391 2 0.671848 0.811296 0.0310534
392 2 0.708566 0.806262 0.0475323
393 2 0.698134 0.81584 0.0509124
394 2 0.667632 0.827704 0.0276148
395 2 0.693425 0.808395 0.044297
396 2 0.678053 0.828254 0.0383805
397 1 0.67028 0.694093 0.0377702
398 1 0.675724 0.691624 0.0465926
399 1 0.695233 0.662494 0.0479795
400 1 0.695777 0.684091 0.0476102
401 2 0.686014 0.680176 0.0569012
402 2 0.702527 0.687256 0.0438132
403 2 0.66972 0.682551 0.0474288
404 2 0.694834 0.673298 0.0474232
405 2 0.698596 0.686021 0.0523056
406 2 0.678463 0.697006 0.0348838
407 2 0.686144 0.688477 0.0465495
408 2 0.672776 0.696155 0.0423558
409 1 0.654017 0.658327 0.0413024
410 1 0.658316 0.677195 0.0385033
411 1 0.668012 0.654503 0.0509607
412 1 0.689303 0.654385 0.0394205
413 2 0.675595 0.636406 0.0682756
414 2 0.666133 0.655234 0.0343085
415 2 0.648601 0.641342 0.0471056
416 2 0.668927 0.664377 0.0490164
417 2 0.690674 0.658489 0.0438574
418 2 0.658039 0.672271 0.034124
419 2 0.689371 0.662233 0.0359265
420 2 0.650138 0.683547 0.0401146
421 1 0.636091 0.622461 0.0468151
422 1 0.648261 0.647011 0.0513001
423 1 0.663567 0.618409 0.0594191
424 1 0.672096 0.63555 0.0472267
425 2 0.635625 0.610539 0.0691274
426 2 0.662647 0.632672 0.0451795
427 2 0.646087 0.625098 0.045754
428 2 0.671426 0.616648 0.0562242
429 2 0.671487 0.645888 0.0484811
430 2 0.658078 0.623694 0.0347325
431 2 0.657427 0.652717 0.0517234
432 2 0.639444 0.653162 0.0507883
433 1 0.618976 0.88605 0.056678
434 1 0.636892 0.878844 0.0607037
435 1 0.671329 0.845249 0.0627727
436 1 0.633238 0.883957 0.0694588
437 2 0.653927 0.867954 0.0722915
438 2 0.643547 0.88241 0.0571405
439 2 0.643119 0.867993 0.0537766
440 2 0.637008 0.874582 0.0714583
441 2 0.633218 0.889288 0.0738019
442 2 0.623381 0.885287 0.0522101
443 2 0.638256 0.883398 0.0650699
444 2 0.626543 0.880098 0.059128
445 1 0.629076 0.843658 0.0445879
446 1 0.63716 0.861329 0.0567855
447 1 0.676222 0.81669 0.0562983
448 1 0.64358 0.840537 0.0573821
449 2 0.670913 0.835279 0.0645967
450 2 0.651236 0.84004 0.0539651
451 2 0.631189 0.839934 0.0490367
452 2 0.670554 0.821898 0.0596795
453 2 0.661769 0.85185 0.0732895
454 2 0.62338 0.852181 0.0432109
455 2 0.640489 0.851098 0.0573645
456 2 0.626336 0.860093 0.0557977
457 1 0.658464 0.811888 0.0411453
458 1 0.632948 0.830254 0.0513521
459 1 0.687653 0.803621 0.0618466
460 1 0.671695 0.811645 0.0478527
461 2 0.678678 0.798964 0.0703519
462 2 0.674267 0.821231 0.0456061
463 2 0.647747 0.812736 0.0422535
464 2 0.679075 0.803811 0.0476114
465 2 0.670404 0.813673 0.0525456
466 2 0.642577 0.828753 0.0413869
467 2 0.662912 0.808931 0.0453984
468 2 0.623509 0.825359 0.0499421
469 1 0.645393 0.692781 0.0418059
470 1 0.649177 0.695744 0.0510997
471 1 0.675632 0.682146 0.057968
472 1 0.668849 0.700484 0.0544452
473 2 0.656814 0.680262 0.066202
474 2 0.674094 0.698483 0.0501837
475 2 0.644436 0.686329 0.052509
476 2 0.673062 0.692541 0.0572641
477 2 0.669238 0.710149 0.056034
478 2 0.646274 0.699147 0.0378596
479 2 0.658549 0.697228 0.053235
480 2 0.649986 0.695158 0.0461549
481 1 0.637454 0.660455 0.0472747
482 1 0.64493 0.675463 0.0523859
483 1 0.648681 0.633113 0.0587227
484 1 0.665881 0.674426 0.0502025
485 2 0.636048 0.641515 0.0666626
486 2 0.658802 0.668128 0.0410964
487 2 0.636234 0.655234 0.0590053
488 2 0.638567 0.628928 0.0586477
489 2 0.669882 0.676669 0.0546169
490 2 0.646526 0.659397 0.0446769
491 2 0.655073 0.674311 0.0506675
492 2 0.63807 0.670301 0.0493229
493 1 0.615494 0.615629 0.0598838
494 1 0.626661 0.650225 0.0579538
495 1 0.631369 0.607162 0.0648331
496 1 0.630226 0.629786 0.0555639
497 2 0.623459 0.600802 0.0666913
498 2 0.633608 0.62594 0.0511644
499 2 0.6254 0.612946 0.0617369
500 2 0.621364 0.624076 0.0564511
501 2 0.655636 0.625017 0.0578661
502 2 0.639353 0.621867 0.0369933
503 2 0.627766 0.640427 0.0558144
504 2 0.619597 0.656671 0.0554374
505 1 0.615475 0.89093 0.0648052
506 1 0.604456 0.899132 0.0713276
507 1 0.643945 0.86875 0.0741704
508 1 0.610165 0.893785 0.0779115
509 2 0.636502 0.885661 0.0815719
510 2 0.608033 0.90322 0.0756125
511 2 0.60968 0.881844 0.0639077
512 2 0.620377 0.893273 0.079144
513 2 0.602833 0.888974 0.080688
514 2 0.618362 0.893699 0.0602196
515 2 0.589007 0.88499 0.0849426
516 2 0.60976 0.898475 0.067186
517 1 0.615495 0.859226 0.0562667
518 1 0.608906 0.871074 0.0637241
519 1 0.663636 0.841098 0.0727936
520 1 0.618401 0.858982 0.0700911
521 2 0.646027 0.825952 0.0778852
522 2 0.637878 0.867943 0.0607123
523 2 0.628018 0.855608 0.0685905
524 2 0.640224 0.858564 0.0740033
525 2 0.623577 0.887303 0.0676616
526 2 0.610939 0.861406 0.0519052
527 2 0.61516 0.866923 0.0672431
528 2 0.612027 0.866513 0.0595302
529 1 0.621511 0.823468 0.0452938
530 1 0.637242 0.851843 0.070429
531 1 0.684603 0.791301 0.06841
532 1 0.652409 0.844044 0.0653436
533 2 0.643588 0.809598 0.0752325
534 2 0.647336 0.838595 0.0618368
535 2 0.639546 0.824008 0.0485275
536 2 0.656595 0.838847 0.0691883
537 2 0.661032 0.848744 0.0632503
538 2 0.622349 0.834836 0.0432136
539 2 0.645153 0.85079 0.067239
540 2 0.636144 0.833409 0.055698
541 1 0.622784 0.687734 0.0535629
542 1 0.623882 0.703852 0.0598832
543 1 0.646573 0.677424 0.0670216
544 1 0.631518 0.705868 0.0529836
545 2 0.629672 0.676319 0.0754546
546 2 0.641633 0.703217 0.0523257
547 2 0.625459 0.680101 0.0565354
548 2 0.638764 0.684679 0.0656608
549 2 0.62692 0.704646 0.048618
550 2 0.626352 0.688315 0.0491152
551 2 0.628319 0.711411 0.0569129
552 2 0.626126 0.697304 0.055681
553 1 0.6116 0.664029 0.0546433
554 1 0.621331 0.675345 0.0605834
555 1 0.625436 0.643312 0.0667962
556 1 0.638996 0.665189 0.0605167
557 2 0.610749 0.644387 0.076177
558 2 0.643201 0.670681 0.0567026
559 2 0.607063 0.632736 0.0557624
560 2 0.623111 0.648047 0.0625314
561 2 0.644712 0.668377 0.0643571
562 2 0.61235 0.669635 0.0503061
563 2 0.6289 0.668383 0.0617816
564 2 0.612779 0.670616 0.0585515
565 1 0.586093 0.635802 0.0589183
566 1 0.604095 0.632634 0.0603974
567 1 0.614171 0.60601 0.0677426
568 1 0.612762 0.626184 0.0673007
569 2 0.577754 0.607062 0.0714413
570 2 0.610675 0.624802 0.0623698
571 2 0.609395 0.603772 0.0720295
572 2 0.610295 0.608159 0.0632386
573 2 0.619868 0.633989 0.0670326
574 2 0.599488 0.622565 0.0510642
575 2 0.603088 0.627445 0.0692736
576 2 0.593963 0.629016 0.0604269
577 1 0.579773 0.883638 0.0675573
578 1 0.584794 0.898096 0.0736595
579 1 0.628915 0.887014 0.0782016
580 1 0.592777 0.884869 0.080511
581 2 0.626871 0.866472 0.089814
582 2 0.59395 0.900885 0.071361
583 2 0.588159 0.877853 0.0689308
584 2 0.607286 0.88942 0.0734667
585 2 0.589514 0.873968 0.0791465
586 2 0.579337 0.885831 0.0628182
587 2 0.578818 0.905375 0.0760411
588 2 0.579418 0.892293 0.0703963
589 1 0.575233 0.859859 0.0629278
590 1 0.591181 0.867532 0.0682211
591 1 0.628003 0.827482 0.0818829
592 1 0.616958 0.868849 0.0784343
593 2 0.620637 0.836128 0.0897732
594 2 0.599063 0.86794 0.064989
595 2 0.575622 0.848978 0.0634259
596 2 0.619076 0.862109 0.0747593
597 2 0.62333 0.877471 0.077936
598 2 0.578418 0.865375 0.058927
599 2 0.617103 0.851961 0.0885536
600 2 0.582286 0.86305 0.0663636
601 1 0.595456 0.837631 0.0649412
602 1 0.608664 0.840706 0.0718228
603 1 0.639168 0.818953 0.0758852
604 1 0.62802 0.833876 0.0732626
605 2 0.618977 0.808057 0.0835741
606 2 0.634338 0.84199 0.0719816
607 2 0.60046 0.834773 0.0607407
608 2 0.633008 0.82427 0.0727578
609 2 0.626851 0.833837 0.0781565
610 2 0.59692 0.84789 0.0630748
611 2 0.617953 0.83512 0.0717353
612 2 0.601483 0.836461 0.0688239
613 1 0.593297 0.68456 0.0596995
614 1 0.60288 0.701983 0.0617138
615 1 0.62218 0.68415 0.0746685
616 1 0.629086 0.689612 0.0661655
617 2 0.603501 0.691531 0.0823963
618 2 0.62161 0.683322 0.0638102
619 2 0.59192 0.675298 0.0619462
620 2 0.626071 0.689611 0.0707916
621 2 0.628618 0.698912 0.0635477
622 2 0.596063 0.68341 0.0550523
623 2 0.61335 0.704269 0.0606556
624 2 0.60118 0.691279 0.0612044
625 1 0.595335 0.647213 0.0653717
626 1 0.59287 0.668411 0.0656942
627 1 0.600346 0.645208 0.0748758
628 1 0.601999 0.679742 0.0720379
629 2 0.588574 0.65783 0.0848296
630 2 0.600717 0.673048 0.0682797
631 2 0.575429 0.652955 0.0700278
632 2 0.599816 0.648207 0.0702532
633 2 0.61229 0.680224 0.0735002
634 2 0.603776 0.641143 0.0632857
635 2 0.594803 0.658154 0.0647325
636 2 0.583053 0.668373 0.0679847
637 1 0.569668 0.629071 0.0639414
638 1 0.577409 0.64236 0.0700595
639 1 0.576158 0.617114 0.0707444
640 1 0.595611 0.625747 0.0728629
641 2 0.590736 0.617596 0.0826124
642 2 0.586663 0.641427 0.0675675
643 2 0.573258 0.620431 0.0662232
644 2 0.585511 0.622829 0.0717636
645 2 0.616546 0.616699 0.0687216
646 2 0.576579 0.632457 0.0604803
647 2 0.59642 0.63506 0.0753342
648 2 0.56994 0.636959 0.0673299
649 1 0.562347 0.88458 0.0770029
650 1 0.556489 0.906217 0.0847834
651 1 0.618001 0.862644 0.0876629
652 1 0.571413 0.903372 0.0794663
653 2 0.596126 0.885038 0.092146
654 2 0.563722 0.909805 0.0813945
655 2 0.570768 0.877744 0.077849
656 2 0.588029 0.890839 0.077102
657 2 0.576214 0.899108 0.0834017
658 2 0.566297 0.894565 0.0777054
659 2 0.569157 0.884229 0.0869814
660 2 0.553428 0.883871 0.0797454
661 1 0.554147 0.855489 0.0732904
662 1 0.578038 0.870905 0.0797723
663 1 0.612445 0.842262 0.0883018
664 1 0.596538 0.865739 0.0773461
665 2 0.589786 0.843255 0.0946769
666 2 0.594699 0.864233 0.0726095
667 2 0.556382 0.844943 0.0724981
668 2 0.60619 0.870546 0.0779787
669 2 0.618346 0.864711 0.082899
670 2 0.546691 0.857435 0.0698834
671 2 0.578861 0.861946 0.0770379
672 2 0.564424 0.859049 0.0729467
673 1 0.559829 0.834765 0.071553
674 1 0.573217 0.854095 0.0748216
675 1 0.614193 0.815849 0.0865139
676 1 0.599977 0.845613 0.0804362
677 2 0.589838 0.830363 0.087916
678 2 0.611622 0.850549 0.0702022
679 2 0.564948 0.831872 0.0756418
680 2 0.604401 0.842012 0.0762845
681 2 0.607114 0.843195 0.0840707
682 2 0.56722 0.836158 0.0680143
683 2 0.597819 0.856289 0.0796993
684 2 0.577462 0.847829 0.0712613
685 1 0.566168 0.705947 0.0670198
686 1 0.578112 0.706018 0.0736544
687 1 0.593254 0.690714 0.0839361
688 1 0.59831 0.700916 0.0709119
689 2 0.569888 0.689659 0.0971841
690 2 0.599712 0.704146 0.0661813
691 2 0.572206 0.696738 0.0738899
692 2 0.598648 0.689815 0.0709028
693 2 0.605875 0.7045 0.0736435
694 2 0.572011 0.697561 0.0652482
695 2 0.588157 0.703823 0.0723109
696 2 0.572359 0.711211 0.0702254
697 1 0.574255 0.662124 0.0675704
698 1 0.570037 0.688675 0.0769581
699 1 0.578748 0.659214 0.0827642
700 1 0.585616 0.675835 0.0778301
701 2 0.575318 0.663225 0.0961308
702 2 0.594682 0.675777 0.0752147
703 2 0.547908 0.635603 0.0816093
704 2 0.581648 0.666341 0.0793077
705 2 0.588624 0.682517 0.0814798
706 2 0.574525 0.659307 0.0628346
707 2 0.572805 0.693563 0.0811489
708 2 0.576844 0.680782 0.0759709
709 1 0.56388 0.622999 0.0779521
710 1 0.553066 0.643877 0.0837245
711 1 0.580331 0.620774 0.0832693
712 1 0.575168 0.639115 0.079508
713 2 0.571579 0.618283 0.0806872
714 2 0.577862 0.639825 0.0747757
715 2 0.567741 0.621085 0.0735084
716 2 0.580464 0.631654 0.0822984
717 2 0.575624 0.649208 0.081342
718 2 0.561266 0.626667 0.0608722
719 2 0.553647 0.651752 0.0803532
720 2 0.565624 0.633724 0.0790324
721 1 0.54524 0.890387 0.0810074
722 1 0.5459 0.904876 0.0917129
723 1 0.586922 0.884997 0.0897187
724 1 0.572048 0.894587 0.0874969
725 2 0.571593 0.8802 0.101153
726 2 0.550239 0.910865 0.0881134
727 2 0.539121 0.886803 0.0845526
728 2 0.580308 0.893413 0.0905471
729 2 0.563358 0.900719 0.087707
730 2 0.538049 0.892157 0.0772859
731 2 0.550696 0.904795 0.0960908
732 2 0.549883 0.899866 0.0821346
733 1 0.543798 0.858265 0.0814113
734 1 0.539466 0.884544 0.0895263
735 1 0.579291 0.844473 0.093246
736 1 0.570865 0.873828 0.0889645
737 2 0.568363 0.851178 0.104441
738 2 0.576121 0.869522 0.0843609
739 2 0.542734 0.847878 0.0830538
740 2 0.580745 0.845186 0.0883846
741 2 0.581442 0.876029 0.0907183
742 2 0.517999 0.848369 0.0683939
743 2 0.561863 0.867659 0.0881116
744 2 0.54656 0.863792 0.0853276
745 1 0.532424 0.834447 0.0775017
746 1 0.546633 0.837641 0.0835044
747 1 0.583552 0.837308 0.085192
748 1 0.566719 0.837237 0.0798783
749 2 0.559513 0.825837 0.0929072
750 2 0.570184 0.847031 0.0782689
751 2 0.539974 0.83177 0.0806731
752 2 0.590766 0.841042 0.0819026
753 2 0.574727 0.83395 0.0828324
754 2 0.532668 0.82923 0.0731338
755 2 0.556946 0.837823 0.0819119
756 2 0.537937 0.842117 0.0748192
757 1 0.551012 0.692215 0.0796966
758 1 0.56006 0.702232 0.0872994
759 1 0.563948 0.685999 0.0935547
760 1 0.57711 0.703197 0.0825834
761 2 0.551714 0.699801 0.0979842
762 2 0.57761 0.708883 0.0783788
763 2 0.559523 0.68692 0.0776542
764 2 0.562662 0.693844 0.0902164
765 2 0.587061 0.699737 0.0837205
766 2 0.54718 0.697499 0.0757149
767 2 0.569408 0.706536 0.0856719
768 2 0.554606 0.698771 0.0832564
769 1 0.546877 0.658078 0.0777962
770 1 0.545836 0.674347 0.083556
771 1 0.565606 0.657926 0.0956531
772 1 0.564013 0.669513 0.0883228
773 2 0.542112 0.662748 0.102194
774 2 0.555253 0.673289 0.0859667
775 2 0.545157 0.647669 0.0866193
776 2 0.560923 0.66268 0.0918109
777 2 0.567986 0.677878 0.0908656
778 2 0.550207 0.65916 0.0732079
779 2 0.554295 0.682615 0.0953978
780 2 0.546602 0.66792 0.0797276
781 1 0.535219 0.625366 0.0892897
782 1 0.536495 0.647347 0.0894202
783 1 0.551947 0.623461 0.0952062
784 1 0.565031 0.63869 0.0914087
785 2 0.558837 0.615781 0.095632
786 2 0.560992 0.641297 0.0869333
787 2 0.54325 0.622254 0.0922082
788 2 0.557483 0.632388 0.0934955
789 2 0.566635 0.647612 0.0941779
790 2 0.539022 0.623158 0.0847788
791 2 0.538414 0.656491 0.0921044
792 2 0.534667 0.636505 0.0899293
793 1 0.511064 0.893033 0.0887055
794 1 0.527446 0.899834 0.0934296
795 1 0.562967 0.879261 0.0980955
796 1 0.55257 0.896836 0.0992993
797 2 0.554776 0.873962 0.100439
798 2 0.535181 0.906854 0.0922081
799 2 0.515262 0.882921 0.0880487
800 2 0.559018 0.889249 0.0975008
801 2 0.542397 0.892609 0.099982
802 2 0.509433 0.896382 0.0841137
803 2 0.546272 0.894486 0.0902518
804 2 0.518198 0.899412 0.0909776
805 1 0.52469 0.864609 0.0788776
806 1 0.521693 0.874224 0.0871911
807 1 0.557618 0.852829 0.104799
808 1 0.551457 0.867405 0.0893982
809 2 0.539064 0.864139 0.103033
810 2 0.547406 0.877111 0.0905867
811 2 0.543038 0.830638 0.0956352
812 2 0.549948 0.859877 0.0929165
813 2 0.56663 0.875258 0.0939415
814 2 0.520002 0.86769 0.0746068
815 2 0.531334 0.87606 0.0889383
816 2 0.521584 0.871467 0.0824309
817 1 0.503331 0.852169 0.0872934
818 1 0.537364 0.836939 0.0986265
819 1 0.550914 0.832252 0.0923891
820 1 0.550154 0.851201 0.0957463
821 2 0.554349 0.828594 0.107027
822 2 0.546909 0.833534 0.0879437
823 2 0.503514 0.859192 0.0916039
824 2 0.554407 0.842537 0.0934404
825 2 0.554809 0.852724 0.100044
826 2 0.510481 0.847221 0.0843008
827 2 0.540485 0.846898 0.0969448
828 2 0.521636 0.854358 0.0795515
829 1 0.514589 0.689621 0.0910732
830 1 0.529362 0.698341 0.0966378
831 1 0.543604 0.684212 0.0948346
832 1 0.5469 0.702545 0.0936979
833 2 0.517324 0.688989 0.105555
834 2 0.55298 0.707255 0.0903384
835 2 0.514843 0.680902 0.0940593
836 2 0.535659 0.68929 0.0974571
837 2 0.573411 0.706754 0.0981454
838 2 0.517246 0.686853 0.0863789
839 2 0.536854 0.70546 0.0950778
840 2 0.522119 0.69588 0.0931198
841 1 0.516779 0.652547 0.0864513
842 1 0.518752 0.671571 0.09593
843 1 0.531377 0.663111 0.10202
844 1 0.535273 0.666604 0.0909951
845 2 0.514946 0.663629 0.112753
846 2 0.537938 0.669999 0.0864167
847 2 0.511948 0.643884 0.0884572
848 2 0.526055 0.671014 0.0996409
849 2 0.539865 0.674744 0.0934479
850 2 0.527138 0.65118 0.0876557
851 2 0.524757 0.667615 0.0922485
852 2 0.509445 0.659785 0.0881162
853 1 0.514831 0.619239 0.091238
854 1 0.510211 0.639548 0.0928392
855 1 0.50961 0.615633 0.0999543
856 1 0.52477 0.644254 0.099318
857 2 0.498834 0.615493 0.100483
858 2 0.517673 0.644089 0.09571
859 2 0.512946 0.61358 0.0954391
860 2 0.513671 0.625444 0.101377
861 2 0.528591 0.654162 0.0996492
862 2 0.525426 0.620583 0.0901259
863 2 0.519476 0.643048 0.103541
864 2 0.511867 0.629142 0.0926273
865 1 0.492744 0.887005 0.0918615
866 1 0.518137 0.875694 0.100498
867 1 0.539 0.887142 0.108553
868 1 0.531675 0.891055 0.100672
869 2 0.501503 0.884234 0.110597
870 2 0.526688 0.899079 0.0982874
871 2 0.496812 0.876932 0.0912781
872 2 0.531083 0.89011 0.10555
873 2 0.526285 0.882082 0.0993295
874 2 0.501736 0.892836 0.0912313
875 2 0.513565 0.870156 0.0967302
876 2 0.532063 0.89034 0.0923199
877 1 0.478689 0.86302 0.0865313
878 1 0.494882 0.866835 0.092516
879 1 0.529408 0.860516 0.104625
880 1 0.513779 0.86172 0.0937077
881 2 0.51947 0.857339 0.116027
882 2 0.517977 0.86528 0.0895779
883 2 0.500126 0.854679 0.100653
884 2 0.517407 0.852747 0.095757
885 2 0.522077 0.867789 0.103164
886 2 0.480477 0.852555 0.0855511
887 2 0.498857 0.859576 0.0844499