ITEM: TIMESTEP
830040
ITEM: NUMBER OF ATOMS
81498
ITEM: BOX BOUNDS pp pp pp
-2.3509606940735033e+01 1.2521416693774540e+02
-4.8936312746933723e+01 9.9788585746933720e+01
1.5267184615907468e+00 3.3210639453839258e+02
ITEM: ATOMS id type xs ys zs
1 1 0.595171 0.873836 0.0423978
2 1 0.604925 0.881101 0.0565745
3 1 0.641343 0.841189 0.0538362
4 1 0.613818 0.864513 0.0586537
5 2 0.628323 0.848741 0.0626255
6 3 0.610582 0.862237 0.0464999
7 2 0.597126 0.86445 0.0447854
8 2 0.636843 0.859069 0.0566065
9 2 0.617514 0.86254 0.0631635
10 2 0.601512 0.874466 0.0385264
11 2 0.613456 0.875121 0.0575989
12 2 0.599993 0.88339 0.0607285
13 1 0.627361 0.858752 0.0360717
14 1 0.619821 0.857235 0.0450865
15 1 0.669559 0.829749 0.0452198
16 1 0.652328 0.840637 0.0459173
17 2 0.640496 0.818159 0.0590843
18 2 0.649691 0.847419 0.0422741
19 2 0.637645 0.855715 0.0370938
20 2 0.662753 0.837859 0.0457881
21 2 0.648659 0.843318 0.0503635
22 2 0.62374 0.849743 0.0337745
23 2 0.646116 0.831842 0.0449172
24 2 0.622735 0.859869 0.0405041
25 1 0.644667 0.833981 0.0316372
26 1 0.643254 0.846907 0.0383094
27 1 0.673265 0.799979 0.0420876
28 1 0.671553 0.819487 0.0394719
29 2 0.663518 0.798297 0.0401458
30 2 0.675888 0.809937 0.0405676
31 2 0.649438 0.825304 0.0335816
32 2 0.664209 0.821451 0.0430627
33 2 0.676327 0.828447 0.0413716
34 2 0.645028 0.831992 0.0268301
35 2 0.666025 0.81954 0.0353988
36 2 0.64804 0.842434 0.0343936
37 1 0.656179 0.805112 0.0256673
38 1 0.656063 0.816718 0.0336835
39 1 0.690065 0.768172 0.0422382
40 1 0.684395 0.782837 0.0399778
41 2 0.674381 0.76443 0.049262
42 2 0.693929 0.778275 0.0412929
43 2 0.631369 0.82055 0.026778
44 2 0.680337 0.77358 0.0420505
45 2 0.680696 0.792225 0.0414399
46 2 0.631176 0.827367 0.0132878
47 2 0.680904 0.781587 0.0354817
48 2 0.657106 0.812368 0.0292959
49 1 0.664067 0.786164 0.0262499
50 1 0.672622 0.775885 0.0335599
51 1 0.687144 0.727874 0.0413426
52 1 0.682231 0.757888 0.0355571
53 2 0.66772 0.739612 0.0469759
54 2 0.682921 0.748783 0.0328897
55 2 0.669899 0.780792 0.0294427
56 2 0.68484 0.733807 0.0373312
57 2 0.690175 0.762356 0.0381532
58 2 0.664723 0.783235 0.0214584
59 2 0.676442 0.765632 0.033506
60 2 0.663116 0.796765 0.0265584
61 1 0.645709 0.751918 0.0296321
62 1 0.656941 0.740589 0.036022
63 1 0.672115 0.712789 0.0402854
64 1 0.678236 0.741893 0.0361283
65 2 0.656749 0.708267 0.0468493
66 2 0.667806 0.73956 0.035494
67 2 0.646109 0.743485 0.0264829
68 2 0.662182 0.717301 0.0410483
69 2 0.680085 0.719664 0.0411629
70 2 0.648112 0.760608 0.0269498
71 2 0.677714 0.751083 0.0389296
72 2 0.652336 0.748217 0.0331004
73 1 0.648963 0.735161 0.023877
74 1 0.653272 0.723657 0.0306746
75 1 0.654062 0.689595 0.0347198
76 1 0.66481 0.706357 0.0325462
77 2 0.646183 0.684019 0.0459442
78 2 0.668302 0.699518 0.0290674
79 2 0.628008 0.716007 0.0256721
80 2 0.657846 0.699851 0.0349315
81 2 0.6723 0.709274 0.0357301
82 2 0.64893 0.735054 0.0190866
83 2 0.659548 0.715165 0.0311527
84 2 0.655431 0.729261 0.0265032
85 1 0.62469 0.705619 0.0255822
86 1 0.634639 0.695752 0.0324129
87 1 0.641029 0.664807 0.0431113
88 1 0.668095 0.689069 0.0281631
89 2 0.635579 0.672049 0.0549008
90 2 0.673586 0.684088 0.0252513
91 2 0.625792 0.69007 0.0333629
92 2 0.649991 0.669654 0.0415721
93 2 0.660926 0.685585 0.0313068
94 2 0.623525 0.70205 0.0210291
95 2 0.644013 0.690448 0.0329524
96 2 0.632421 0.700591 0.0281923
97 1 0.605119 0.674402 0.0326864
98 1 0.617592 0.689305 0.0364464
99 1 0.62897 0.651084 0.04613
100 1 0.623994 0.676581 0.0433235
101 2 0.598802 0.638476 0.0544184
102 2 0.636584 0.654828 0.0430349
103 2 0.604125 0.668201 0.0368503
104 2 0.627915 0.660179 0.0490733
105 2 0.632516 0.670863 0.0417239
106 2 0.610394 0.682578 0.0347178
107 2 0.61491 0.6705 0.0432105
108 2 0.61247 0.698392 0.0376263
109 1 0.576128 0.662372 0.0425379
110 1 0.597654 0.677143 0.0488128
111 1 0.595748 0.636024 0.0498238
112 1 0.608626 0.648736 0.0456581
113 2 0.580849 0.627746 0.0654112
114 2 0.604796 0.655679 0.0423719
115 2 0.557106 0.642488 0.0543572
116 2 0.603341 0.639623 0.046684
117 2 0.619214 0.648101 0.0448001
118 2 0.579464 0.653213 0.0316491
119 2 0.60672 0.654465 0.0497607
120 2 0.582962 0.660673 0.0388104
121 1 0.561333 0.884284 0.0495361
122 1 0.577938 0.87362 0.0514161
123 1 0.625781 0.858259 0.0654157
124 1 0.592156 0.880934 0.063846
125 2 0.610839 0.858943 0.0790182
126 2 0.586601 0.873025 0.0615823
127 2 0.602392 0.888742 0.0531752
128 2 0.603954 0.860374 0.0583644
129 2 0.595299 0.875782 0.0679144
130 2 0.584873 0.882188 0.051793
131 2 0.585019 0.888999 0.0646829
132 2 0.56987 0.878078 0.0489784
133 1 0.583283 0.842029 0.0421244
134 1 0.59526 0.882767 0.0505934
135 1 0.637231 0.819987 0.0544108
136 1 0.629266 0.856686 0.0531766
137 2 0.63282 0.831706 0.0622702
138 2 0.627461 0.8595 0.0485248
139 2 0.618245 0.846392 0.0453369
140 2 0.643579 0.845311 0.0582572
141 2 0.631979 0.84617 0.0527915
142 2 0.588405 0.843212 0.0378301
143 2 0.620209 0.859144 0.0555769
144 2 0.595872 0.881378 0.0458397
145 1 0.596913 0.820002 0.0361656
146 1 0.61837 0.836185 0.0471158
147 1 0.652069 0.80904 0.0498085
148 1 0.63623 0.830395 0.0429909
149 2 0.640867 0.795772 0.0588934
150 2 0.636314 0.839135 0.0400095
151 2 0.601311 0.820222 0.040516
152 2 0.643211 0.814651 0.0512192
153 2 0.63965 0.830554 0.0541212
154 2 0.601721 0.826453 0.0329176
155 2 0.628565 0.832429 0.0463426
156 2 0.61283 0.828183 0.0449433
157 1 0.628439 0.812807 0.0387605
158 1 0.610214 0.818498 0.0430943
159 1 0.667325 0.772705 0.0487892
160 1 0.65345 0.802404 0.0406504
161 2 0.653465 0.785174 0.0568275
162 2 0.652565 0.809454 0.0369865
163 2 0.630839 0.803057 0.0406626
164 2 0.652585 0.806942 0.0450936
165 2 0.660705 0.814546 0.0516233
166 2 0.629147 0.812453 0.0338989
167 2 0.645724 0.795051 0.0408555
168 2 0.63427 0.821003 0.0407888
169 1 0.636299 0.774619 0.0385337
170 1 0.635315 0.793546 0.0419822
171 1 0.660482 0.743805 0.0500837
172 1 0.657551 0.771963 0.0402046
173 2 0.639245 0.752619 0.057391
174 2 0.664233 0.775588 0.0367151
175 2 0.632165 0.766957 0.0414526
176 2 0.65726 0.761058 0.0404769
177 2 0.66135 0.77421 0.0447213
178 2 0.625303 0.803686 0.0267898
179 2 0.647143 0.774551 0.0393004
180 2 0.632539 0.784456 0.0396266
181 1 0.613004 0.749179 0.0326599
182 1 0.63219 0.757794 0.043979
183 1 0.652983 0.71566 0.0436386
184 1 0.653169 0.753125 0.0432065
185 2 0.631319 0.724418 0.0594093
186 2 0.654152 0.744013 0.0404866
187 2 0.627836 0.748865 0.0420573
188 2 0.651185 0.738394 0.050091
189 2 0.657824 0.752738 0.0476292
190 2 0.619577 0.75747 0.0336771
191 2 0.642789 0.755277 0.0441231
192 2 0.603234 0.750542 0.0345549
193 1 0.623619 0.731368 0.0344372
194 1 0.627347 0.738086 0.0426549
195 1 0.637078 0.689078 0.0472984
196 1 0.643454 0.731594 0.0484168
197 2 0.622708 0.702178 0.0547652
198 2 0.653292 0.731006 0.0342603
199 2 0.643052 0.720982 0.0294547
200 2 0.644725 0.71124 0.0412739
201 2 0.649074 0.724376 0.0458044
202 2 0.629211 0.730615 0.0302665
203 2 0.635259 0.735708 0.0458223
204 2 0.629283 0.732651 0.0384909
205 1 0.604716 0.705322 0.0389772
206 1 0.617841 0.710863 0.0452265
207 1 0.629899 0.676042 0.0586159
208 1 0.635715 0.705405 0.0408764
209 2 0.609975 0.666022 0.0643396
210 2 0.634646 0.702731 0.0361984
211 2 0.596696 0.699878 0.0412222
212 2 0.626561 0.685738 0.0572237
213 2 0.636399 0.696669 0.0437976
214 2 0.603031 0.711781 0.0351751
215 2 0.626833 0.710074 0.0426621
216 2 0.609317 0.711852 0.0422997
217 1 0.574119 0.683047 0.0453589
218 1 0.592539 0.694854 0.0451446
219 1 0.60098 0.659886 0.0531331
220 1 0.605259 0.666302 0.0416812
221 2 0.612037 0.646048 0.0774289
222 2 0.621577 0.684773 0.0404172
223 2 0.588659 0.679636 0.0512923
224 2 0.602541 0.670429 0.0520475
225 2 0.628733 0.68185 0.047073
226 2 0.582782 0.689671 0.0444222
227 2 0.598053 0.671091 0.0446873
228 2 0.59074 0.702058 0.0487328
229 1 0.546962 0.645663 0.0551331
230 1 0.566723 0.644394 0.05655
231 1 0.573891 0.635002 0.0634706
232 1 0.582152 0.651549 0.0504735
233 2 0.562031 0.625907 0.0819209
234 2 0.578566 0.657107 0.04663
235 2 0.549107 0.655187 0.0574814
236 2 0.569468 0.635429 0.0590707
237 2 0.590346 0.657628 0.0523428
238 2 0.549705 0.653226 0.0389547
239 2 0.574318 0.648566 0.0536178
240 2 0.575608 0.673103 0.0435393
241 1 0.541789 0.882702 0.0515357
242 1 0.560488 0.88529 0.0589231
243 1 0.592581 0.867096 0.0705438
244 1 0.574553 0.890146 0.0655638
245 2 0.596644 0.866706 0.0750579
246 2 0.567358 0.89847 0.0659617
247 2 0.574417 0.862378 0.0636258
248 2 0.581654 0.866642 0.070429
249 2 0.572685 0.885059 0.0698319
250 2 0.551667 0.879624 0.0502127
251 2 0.569269 0.885007 0.0618332
252 2 0.562428 0.887917 0.054244
253 1 0.562364 0.853156 0.052489
254 1 0.580443 0.865005 0.0597464
255 1 0.624224 0.838331 0.062436
256 1 0.596669 0.853662 0.0563876
257 2 0.601964 0.840975 0.0693285
258 2 0.599103 0.8747 0.0534595
259 2 0.583534 0.86597 0.049086
260 2 0.601816 0.844113 0.0568404
261 2 0.595203 0.857453 0.0685173
262 2 0.571841 0.827521 0.0493859
263 2 0.586982 0.857021 0.0581857
264 2 0.57575 0.869533 0.0558223
265 1 0.58113 0.824264 0.0472044
266 1 0.590543 0.85826 0.0476071
267 1 0.619366 0.811269 0.0569475
268 1 0.608569 0.835858 0.0557737
269 2 0.599816 0.809915 0.064047
270 2 0.613671 0.83669 0.0515073
271 2 0.587697 0.822213 0.0510212
272 2 0.614456 0.816713 0.0604847
273 2 0.616888 0.836674 0.0589842
274 2 0.578507 0.817666 0.0434275
275 2 0.601603 0.827372 0.0556754
276 2 0.584664 0.833114 0.0447705
277 1 0.589639 0.808353 0.062493
278 1 0.591315 0.823576 0.0556276
279 1 0.630242 0.793741 0.0593549
280 1 0.60946 0.802503 0.049648
281 2 0.624206 0.772922 0.0675073
282 2 0.609086 0.810439 0.0463402
283 2 0.588022 0.798303 0.0611002
284 2 0.617456 0.795128 0.049071
285 2 0.612183 0.807411 0.0538255
286 2 0.572923 0.809913 0.0357949
287 2 0.600607 0.796417 0.050163
288 2 0.589532 0.815029 0.0585378
289 1 0.597211 0.787758 0.05259
290 1 0.589989 0.788436 0.0593002
291 1 0.637713 0.763357 0.0580582
292 1 0.625874 0.788543 0.0500438
293 2 0.642681 0.74686 0.0740617
294 2 0.633357 0.791711 0.0467636
295 2 0.600457 0.778565 0.0505313
296 2 0.624066 0.777975 0.0494425
297 2 0.628051 0.7895 0.0548731
298 2 0.585802 0.774211 0.0286061
299 2 0.587547 0.780572 0.0619855
300 2 0.60042 0.788537 0.0573074
301 1 0.599905 0.756527 0.0450456
302 1 0.603989 0.768664 0.0497138
303 1 0.620791 0.726907 0.0600199
304 1 0.6236 0.76784 0.0512441
305 2 0.621213 0.7536 0.0659325
306 2 0.627393 0.760351 0.0481582
307 2 0.60437 0.746936 0.0459009
308 2 0.617048 0.73589 0.0439317
309 2 0.630388 0.767285 0.055
310 2 0.596339 0.760879 0.0492774
311 2 0.613012 0.766564 0.0521672
312 2 0.60658 0.765277 0.0450714
313 1 0.59333 0.731549 0.0382185
314 1 0.606656 0.736345 0.0454707
315 1 0.612647 0.702767 0.0529441
316 1 0.61193 0.722809 0.0518571
317 2 0.611471 0.701037 0.0621585
318 2 0.618646 0.718904 0.0484071
319 2 0.599292 0.711904 0.0635165
320 2 0.615422 0.718931 0.0621961
321 2 0.616658 0.727646 0.0555534
322 2 0.617393 0.740089 0.0343106
323 2 0.605934 0.72994 0.0494032
324 2 0.599386 0.732907 0.0421865
325 1 0.584677 0.704676 0.0526624
326 1 0.590914 0.706735 0.0613764
327 1 0.603267 0.674446 0.0645019
328 1 0.605442 0.693092 0.0602182
329 2 0.588406 0.684922 0.0723495
330 2 0.614876 0.702404 0.0481162
331 2 0.581191 0.694718 0.0540334
332 2 0.607238 0.683552 0.0623141
333 2 0.60702 0.695175 0.0553944
334 2 0.582638 0.71039 0.0325131
335 2 0.595242 0.696478 0.0612746
336 2 0.589351 0.708766 0.0566158
337 1 0.546386 0.690256 0.0558422
338 1 0.580106 0.68396 0.0536742
339 1 0.581207 0.654635 0.0644826
340 1 0.583358 0.673503 0.0617056
341 2 0.575057 0.655834 0.0683939
342 2 0.599325 0.68708 0.0468199
343 2 0.544208 0.682398 0.065063
344 2 0.580255 0.663175 0.061651
345 2 0.594186 0.673171 0.0618921
346 2 0.572727 0.682548 0.0501708
347 2 0.579538 0.679003 0.0579121
348 2 0.550667 0.700053 0.0563925
349 1 0.543096 0.650561 0.0685989
350 1 0.553354 0.678982 0.0628232
351 1 0.554427 0.631247 0.0793128
352 1 0.555223 0.657761 0.0614028
353 2 0.562577 0.625903 0.0929566
354 2 0.563905 0.65201 0.0599636
355 2 0.540923 0.652663 0.0804825
356 2 0.55397 0.641992 0.0797045
357 2 0.579415 0.644433 0.0631006
358 2 0.52334 0.653894 0.0487554
359 2 0.560042 0.682565 0.0662995
360 2 0.550789 0.653358 0.0654101
361 1 0.528861 0.905464 0.0602633
362 1 0.538143 0.899966 0.0684476
363 1 0.563359 0.8803 0.0711341
364 1 0.556574 0.896086 0.0660019
365 2 0.548331 0.866032 0.0764049
366 2 0.554753 0.89301 0.0613527
367 2 0.539367 0.878974 0.0558868
368 2 0.53612 0.872748 0.0712497
369 2 0.556741 0.886758 0.0686127
370 2 0.53512 0.905489 0.0562179
371 2 0.548832 0.902054 0.0679824
372 2 0.533482 0.905277 0.0646353
373 1 0.541463 0.856326 0.0529545
374 1 0.544059 0.872279 0.0591314
375 1 0.59316 0.846803 0.0683856
376 1 0.572267 0.863219 0.0683676
377 2 0.58485 0.845192 0.0714982
378 2 0.572497 0.83932 0.0616544
379 2 0.554864 0.841848 0.0622021
380 2 0.570366 0.853892 0.0705609
381 2 0.564552 0.870429 0.0693162
382 2 0.538068 0.862716 0.0492717
383 2 0.554314 0.876278 0.0591312
384 2 0.542577 0.86258 0.0569931
385 1 0.56448 0.834568 0.0507196
386 1 0.5635 0.841997 0.0593516
387 1 0.580087 0.820125 0.0690741
388 1 0.582561 0.835682 0.0623595
389 2 0.552509 0.82115 0.0911548
390 2 0.594919 0.854218 0.0515788
391 2 0.568156 0.844933 0.0505839
392 2 0.582318 0.828402 0.0659977
393 2 0.589191 0.843248 0.0641525
394 2 0.564475 0.851683 0.0571624
395 2 0.585755 0.831335 0.0581357
396 2 0.561893 0.835072 0.0555123
397 1 0.551932 0.710866 0.0565226
398 1 0.555374 0.712913 0.0658887
399 1 0.57954 0.685174 0.0696571
400 1 0.574103 0.704983 0.0670253
401 2 0.56631 0.692448 0.0797664
402 2 0.581478 0.707792 0.063646
403 2 0.545224 0.711382 0.0675441
404 2 0.577081 0.694937 0.0680654
405 2 0.574114 0.711063 0.0710047
406 2 0.559454 0.713205 0.0531218
407 2 0.563525 0.705353 0.0656507
408 2 0.553988 0.714592 0.0610181
409 1 0.536061 0.687619 0.0673239
410 1 0.534578 0.709152 0.0677591
411 1 0.561494 0.66815 0.0767512
412 1 0.560408 0.683034 0.0711563
413 2 0.55093 0.653817 0.0868527
414 2 0.55265 0.683475 0.0583876
415 2 0.536655 0.65872 0.0699172
416 2 0.556565 0.674061 0.073271
417 2 0.580811 0.67834 0.065901
418 2 0.535426 0.698358 0.0669088
419 2 0.57094 0.682167 0.0721957
420 2 0.529498 0.71586 0.0645322
421 1 0.506901 0.635283 0.070043
422 1 0.528974 0.661493 0.0730671
423 1 0.539661 0.630275 0.0858828
424 1 0.549427 0.650764 0.0776192
425 2 0.512804 0.63078 0.0893552
426 2 0.54713 0.647902 0.0729875
427 2 0.507872 0.629537 0.0742226
428 2 0.545078 0.628146 0.0816005
429 2 0.555056 0.659823 0.0778074
430 2 0.541051 0.640426 0.0584832
431 2 0.532635 0.669487 0.0758269
432 2 0.520359 0.665174 0.0706279
433 1 0.502134 0.897904 0.070709
434 1 0.527314 0.896062 0.0765876
435 1 0.53801 0.869683 0.0757657
436 1 0.529742 0.892573 0.085744
437 2 0.538953 0.868125 0.0911704
438 2 0.533198 0.900499 0.0728787
439 2 0.511567 0.892908 0.0696535
440 2 0.535081 0.883759 0.0874369
441 2 0.530225 0.899169 0.089653
442 2 0.491376 0.89372 0.0631823
443 2 0.531639 0.895086 0.0810981
444 2 0.517869 0.90077 0.0779079
445 1 0.521887 0.854589 0.0633553
446 1 0.517406 0.8839 0.0704207
447 1 0.574613 0.845663 0.0730836
448 1 0.534757 0.878751 0.0671491
449 2 0.559467 0.841597 0.0810692
450 2 0.537914 0.889179 0.0674985
451 2 0.527859 0.854108 0.0673889
452 2 0.539605 0.873776 0.0634638
453 2 0.542386 0.854049 0.095301
454 2 0.520385 0.863549 0.0607704
455 2 0.524083 0.880421 0.0669833
456 2 0.511063 0.875315 0.071122
457 1 0.54775 0.836799 0.0650106
458 1 0.532302 0.845802 0.0698763
459 1 0.555799 0.83141 0.0801817
460 1 0.561928 0.828534 0.071183
461 2 0.545019 0.831799 0.0813235
462 2 0.569295 0.820955 0.0700208
463 2 0.541788 0.842907 0.0680658
464 2 0.557111 0.828039 0.0755942
465 2 0.56859 0.837082 0.0719223
466 2 0.539456 0.833656 0.0620127
467 2 0.554142 0.830381 0.0677959
468 2 0.533964 0.848631 0.0530737
469 1 0.521952 0.720818 0.0617332
470 1 0.517511 0.707904 0.0734444
471 1 0.558324 0.698047 0.0774303
472 1 0.565967 0.716333 0.0734452
473 2 0.53291 0.695182 0.0842985
474 2 0.559893 0.718936 0.0693745
475 2 0.515246 0.697185 0.0728277
476 2 0.556573 0.69174 0.0734133
477 2 0.56852 0.724028 0.0762401
478 2 0.525776 0.718676 0.0572229
479 2 0.527517 0.709564 0.0715232
480 2 0.518889 0.731617 0.0618221
481 1 0.511851 0.670249 0.0686994
482 1 0.514145 0.687244 0.0746172
483 1 0.540749 0.651543 0.085292
484 1 0.533784 0.680191 0.0762993
485 2 0.519706 0.662379 0.0925158
486 2 0.536488 0.684312 0.0719171
487 2 0.508777 0.671925 0.0818981
488 2 0.524592 0.652689 0.0751967
489 2 0.540066 0.683126 0.0800232
490 2 0.527666 0.684548 0.064531
491 2 0.523685 0.684104 0.076551
492 2 0.511472 0.679519 0.0712936
493 1 0.5042 0.634031 0.0784536
494 1 0.502418 0.665183 0.0793541
495 1 0.504546 0.625307 0.0870905
496 1 0.514325 0.649878 0.0757825
497 2 0.4947 0.626045 0.0893098
498 2 0.510565 0.644917 0.0717665
499 2 0.503346 0.628417 0.082504
500 2 0.511202 0.642293 0.0790419
501 2 0.53847 0.641011 0.0859772
502 2 0.523254 0.639972 0.0604911
503 2 0.508901 0.658775 0.0768549
504 2 0.495574 0.671165 0.0767218
505 1 0.50752 0.898893 0.0790635
506 1 0.499542 0.904262 0.0876166
507 1 0.532727 0.876912 0.0910728
508 1 0.512489 0.91503 0.0934451
509 2 0.534605 0.897707 0.0974959
510 2 0.507595 0.907169 0.0905199
511 2 0.505673 0.888107 0.0790979
512 2 0.522261 0.910762 0.0945327
513 2 0.511967 0.924158 0.0913891
514 2 0.502083 0.901948 0.0751196
515 2 0.505674 0.913506 0.0972955
516 2 0.503392 0.902182 0.0832424
517 1 0.505169 0.867459 0.0729668
518 1 0.500991 0.878941 0.0806828
519 1 0.538109 0.837256 0.084213
520 1 0.513554 0.881082 0.0882083
521 2 0.545023 0.844854 0.101854
522 2 0.52357 0.886817 0.0743432
523 2 0.510116 0.857932 0.0736757
524 2 0.521937 0.875472 0.0902522
525 2 0.519299 0.888923 0.0860236
526 2 0.511363 0.852241 0.0642797
527 2 0.506581 0.877292 0.0849047
528 2 0.503022 0.871197 0.0774597
529 1 0.503762 0.833444 0.0705989
530 1 0.509488 0.849335 0.0766374
531 1 0.561981 0.816476 0.0924387
532 1 0.52957 0.85207 0.0788053
533 2 0.548397 0.834324 0.0957739
534 2 0.532748 0.847913 0.0745583
535 2 0.493276 0.834066 0.0699595
536 2 0.534926 0.846653 0.0823196
537 2 0.531534 0.862768 0.0781282
538 2 0.511498 0.825915 0.0701567
539 2 0.51894 0.849475 0.0790108
540 2 0.52501 0.837582 0.0691933
541 1 0.47849 0.719649 0.082001
542 1 0.493644 0.707579 0.0847657
543 1 0.523808 0.695528 0.0869078
544 1 0.513945 0.711842 0.0828615
545 2 0.514292 0.695974 0.0975999
546 2 0.516968 0.709717 0.078189
547 2 0.47432 0.694298 0.0827755
548 2 0.519212 0.704876 0.085853
549 2 0.514402 0.721868 0.0839521
550 2 0.510049 0.713594 0.070839
551 2 0.503719 0.707998 0.0833762
552 2 0.487846 0.7147 0.0820786
553 1 0.489007 0.678669 0.0748556
554 1 0.484059 0.689288 0.0822063
555 1 0.50931 0.662155 0.0936668
556 1 0.508846 0.682591 0.0831045
557 2 0.488959 0.654967 0.0941454
558 2 0.508114 0.687086 0.0786805
559 2 0.495915 0.658671 0.081924
560 2 0.503757 0.670421 0.0919147
561 2 0.517049 0.687357 0.0854871
562 2 0.491843 0.681089 0.0702923
563 2 0.489771 0.697398 0.0842447
564 2 0.488837 0.68705 0.0779434
565 1 0.469337 0.653887 0.0798845
566 1 0.487389 0.654126 0.0839893
567 1 0.486735 0.629951 0.09221
568 1 0.495234 0.64839 0.0916881
569 2 0.461484 0.631411 0.103314
570 2 0.494492 0.638003 0.0769459
571 2 0.484515 0.623409 0.0959856
572 2 0.493026 0.638807 0.0941905
573 2 0.5049 0.652726 0.0919741
574 2 0.478924 0.640414 0.072045
575 2 0.491279 0.647129 0.0872733
576 2 0.479363 0.650488 0.0811848
577 1 0.474823 0.895682 0.0885482
578 1 0.484053 0.913232 0.0910559
579 1 0.527083 0.90124 0.0943152
580 1 0.497492 0.90691 0.098163
581 2 0.525168 0.878635 0.108999
582 2 0.491862 0.91193 0.0877838
583 2 0.479147 0.892046 0.0845116
584 2 0.494335 0.895065 0.0894744
585 2 0.479364 0.890474 0.0927058
586 2 0.477348 0.889799 0.0766438
587 2 0.478729 0.922076 0.092503
588 2 0.476604 0.905905 0.0895791
589 1 0.466069 0.869295 0.079882
590 1 0.480013 0.8849 0.0808336
591 1 0.53988 0.853568 0.100181
592 1 0.509374 0.889539 0.0962701
593 2 0.515636 0.863866 0.0996686
594 2 0.490227 0.881097 0.0805727
595 2 0.470348 0.86009 0.0816283
596 2 0.507396 0.884559 0.0919306
597 2 0.518802 0.89432 0.0954057
598 2 0.466933 0.871333 0.0751504
599 2 0.51051 0.881368 0.0993633
600 2 0.472424 0.877214 0.0817254
601 1 0.491668 0.855825 0.0807876
602 1 0.489428 0.867158 0.0883116
603 1 0.54561 0.829161 0.0918073
604 1 0.525877 0.829081 0.0905679
605 2 0.520562 0.827982 0.101251
606 2 0.507196 0.840623 0.0738374
607 2 0.500686 0.850856 0.0793945
608 2 0.528622 0.832748 0.0862639
609 2 0.535079 0.825783 0.0922625
610 2 0.486945 0.86004 0.0768154
611 2 0.517874 0.830389 0.0935637
612 2 0.493803 0.863241 0.0842567
613 1 0.467944 0.702849 0.0823912
614 1 0.471773 0.733162 0.0788549
615 1 0.50358 0.694481 0.0972801
616 1 0.490443 0.709733 0.0942239
617 2 0.491125 0.699495 0.10691
618 2 0.491971 0.710263 0.0894913
619 2 0.487784 0.67755 0.0916868
620 2 0.498056 0.703537 0.0961994
621 2 0.487565 0.718327 0.0970586
622 2 0.46709 0.703811 0.0775131
623 2 0.477509 0.730418 0.0828716
624 2 0.472472 0.712008 0.0840772
625 1 0.475435 0.670517 0.0848201
626 1 0.477475 0.675768 0.0930433
627 1 0.480372 0.657244 0.0968922
628 1 0.498227 0.679487 0.0908404
629 2 0.471763 0.664317 0.106168
630 2 0.500489 0.682368 0.086256
631 2 0.457193 0.665193 0.0896
632 2 0.47602 0.666082 0.095107
633 2 0.501588 0.687383 0.0937526
634 2 0.482321 0.662472 0.0862003
635 2 0.471835 0.6753 0.0888803
636 2 0.454642 0.67804 0.084329
637 1 0.450229 0.649642 0.0818324
638 1 0.454761 0.654877 0.0903756
639 1 0.455185 0.636115 0.100005
640 1 0.469057 0.641417 0.0934315
641 2 0.453827 0.646551 0.101285
642 2 0.463572 0.648283 0.0905786
643 2 0.442951 0.642611 0.0799378
644 2 0.461478 0.636087 0.0959426
645 2 0.477236 0.635179 0.0914986
646 2 0.461067 0.647924 0.0815854
647 2 0.474389 0.648224 0.0964671
648 2 0.448789 0.651873 0.0865167
649 1 0.459931 0.905844 0.0968717
650 1 0.456902 0.930108 0.100917
651 1 0.515412 0.87567 0.110424
652 1 0.472159 0.923788 0.0962296
653 2 0.493714 0.90975 0.110283
654 2 0.463726 0.930565 0.097196
655 2 0.466187 0.896906 0.0976169
656 2 0.489258 0.909057 0.0950153
657 2 0.477718 0.925105 0.100417
658 2 0.466896 0.914177 0.0966919
659 2 0.463274 0.923746 0.104365
660 2 0.451569 0.909398 0.0995263
661 1 0.443513 0.879219 0.0919646
662 1 0.472844 0.888372 0.0969156
663 1 0.509142 0.871702 0.101475
664 1 0.49005 0.886307 0.091647
665 2 0.497985 0.869244 0.112736
666 2 0.488434 0.877942 0.088618
667 2 0.451193 0.874896 0.0949263
668 2 0.501598 0.896686 0.0975039
669 2 0.510452 0.87324 0.106215
670 2 0.441101 0.872236 0.0884435
671 2 0.467611 0.879436 0.0956677
672 2 0.447736 0.888472 0.0901129
673 1 0.464035 0.852088 0.0922777
674 1 0.460959 0.870782 0.0957662
675 1 0.514747 0.834141 0.0981526
676 1 0.491378 0.869403 0.0970117
677 2 0.493425 0.846655 0.104703
678 2 0.493872 0.864909 0.0926392
679 2 0.471104 0.851606 0.0959821
680 2 0.479903 0.862123 0.0880585
681 2 0.499198 0.868442 0.100211
682 2 0.468522 0.849397 0.0880508
683 2 0.491063 0.880067 0.0956539
684 2 0.462109 0.863005 0.092341
685 1 0.44708 0.70957 0.0930364
686 1 0.458457 0.717776 0.100212
687 1 0.480629 0.70079 0.106026
688 1 0.478456 0.714063 0.099009
689 2 0.464416 0.718717 0.119923
690 2 0.480353 0.706197 0.0955988
691 2 0.449822 0.699193 0.0936156
692 2 0.47953 0.709819 0.103408
693 2 0.453819 0.724922 0.103378
694 2 0.446998 0.711973 0.0882416
695 2 0.468834 0.718686 0.0990493
696 2 0.453183 0.715281 0.0961671
697 1 0.453568 0.675362 0.0890898
698 1 0.453489 0.690539 0.0959951
699 1 0.462677 0.669323 0.104608
700 1 0.470494 0.687141 0.100349
701 2 0.444195 0.671094 0.114571
702 2 0.475374 0.68279 0.0964996
703 2 0.420406 0.648331 0.102683
704 2 0.465868 0.678959 0.102867
705 2 0.477151 0.692722 0.103153
706 2 0.481263 0.67878 0.0830927
707 2 0.462566 0.692992 0.0983816
708 2 0.455446 0.682567 0.0927319
709 1 0.435282 0.635303 0.101557
710 1 0.43056 0.655123 0.10242
711 1 0.438041 0.633856 0.11121
712 1 0.450274 0.656314 0.0996939
713 2 0.436236 0.633816 0.10642
714 2 0.450452 0.654784 0.0948148
715 2 0.445019 0.632048 0.0997484
716 2 0.440991 0.660157 0.10125
717 2 0.458002 0.663475 0.101075
718 2 0.449785 0.657707 0.0785709
719 2 0.425257 0.664037 0.100615
720 2 0.435185 0.645794 0.100509
721 1 0.442566 0.915728 0.0999327
722 1 0.462295 0.932066 0.108244
723 1 0.487321 0.907179 0.106612
724 1 0.474809 0.923186 0.104927
725 2 0.475869 0.899685 0.11607
726 2 0.457248 0.937176 0.104661
727 2 0.444943 0.899005 0.106132
728 2 0.492915 0.907725 0.102486
729 2 0.478915 0.914123 0.10642
730 2 0.435139 0.913485 0.0965972
731 2 0.457539 0.927665 0.11195
732 2 0.447643 0.925438 0.100025
733 1 0.431719 0.886449 0.098883
734 1 0.444772 0.888211 0.106251
735 1 0.488783 0.870723 0.110314
736 1 0.480865 0.886881 0.105802
737 2 0.467198 0.866778 0.118186
738 2 0.478371 0.887068 0.101006
739 2 0.426459 0.854345 0.0974862
740 2 0.487737 0.879141 0.107265
741 2 0.48404 0.896912 0.106823
742 2 0.430941 0.897006 0.0978583
743 2 0.471692 0.88481 0.10817
744 2 0.4393 0.885037 0.102373
745 1 0.429254 0.843694 0.0984358
746 1 0.441291 0.85275 0.103622
747 1 0.484618 0.851136 0.106787
748 1 0.473591 0.858352 0.0996536
749 2 0.470869 0.842105 0.117214
750 2 0.464868 0.865079 0.0996287
751 2 0.434454 0.844362 0.102692
752 2 0.48204 0.864886 0.0983803
753 2 0.487101 0.861332 0.108042
754 2 0.436974 0.841831 0.0952239
755 2 0.476566 0.852838 0.103581
756 2 0.445228 0.854017 0.0990553
757 1 0.422735 0.702545 0.101034
758 1 0.430813 0.712235 0.107634
759 1 0.438845 0.710505 0.118288
760 1 0.451688 0.718052 0.107155
761 2 0.421602 0.708172 0.116759
762 2 0.456771 0.710914 0.1041
763 2 0.431225 0.695667 0.101262
764 2 0.448806 0.71436 0.118309
765 2 0.455869 0.720012 0.111571
766 2 0.420941 0.706387 0.0965487
767 2 0.441284 0.715216 0.107625
768 2 0.426374 0.711329 0.103348
769 1 0.426909 0.674454 0.100023
770 1 0.438809 0.688661 0.103033
771 1 0.434229 0.674791 0.115565
772 1 0.436321 0.69471 0.11181
773 2 0.416861 0.664581 0.123021
774 2 0.439848 0.701902 0.115193
775 2 0.402122 0.662356 0.102559
776 2 0.433669 0.685455 0.114224
777 2 0.42986 0.702098 0.109538
778 2 0.430493 0.676551 0.0954791
779 2 0.441465 0.691511 0.107658
780 2 0.44649 0.688199 0.0996078
781 1 0.404913 0.638992 0.108976
782 1 0.405182 0.659744 0.107076
783 1 0.420965 0.640865 0.115266
784 1 0.424675 0.659239 0.110939
785 2 0.428718 0.634183 0.113696
786 2 0.4312 0.656058 0.107402
787 2 0.412084 0.639332 0.112627
788 2 0.423629 0.651241 0.114306
789 2 0.427712 0.66852 0.11294
790 2 0.409979 0.635325 0.105002
791 2 0.414999 0.660812 0.108904
792 2 0.402431 0.649335 0.107744
793 1 0.405784 0.896308 0.107893
794 1 0.440506 0.907915 0.108037
795 1 0.465352 0.901402 0.115887
796 1 0.453816 0.918294 0.113848
797 2 0.461914 0.899142 0.120387
798 2 0.472992 0.931277 0.108081
799 2 0.423901 0.88937 0.108494
800 2 0.461999 0.911385 0.114709
801 2 0.447482 0.918446 0.117742
802 2 0.409444 0.902602 0.104281
803 2 0.447763 0.913745 0.110409
804 2 0.43772 0.91381 0.104203
805 1 0.418447 0.882417 0.105613
806 1 0.430585 0.892765 0.111941
807 1 0.45764 0.868168 0.115989
808 1 0.461976 0.884889 0.110196
809 2 0.444399 0.872652 0.126643
810 2 0.454743 0.884695 0.106583
811 2 0.420963 0.872374 0.106888
812 2 0.459634 0.876704 0.113095
813 2 0.461148 0.894203 0.112746
814 2 0.389909 0.870161 0.103546
815 2 0.439523 0.887018 0.110558
816 2 0.424799 0.858161 0.111385
817 1 0.424273 0.862139 0.106901
818 1 0.42982 0.854054 0.115166
819 1 0.460696 0.84232 0.1187
820 1 0.449764 0.850651 0.112085
821 2 0.44503 0.844033 0.126956
822 2 0.448156 0.850358 0.107229
823 2 0.434557 0.860639 0.105192
824 2 0.454624 0.842806 0.114695
825 2 0.455439 0.859554 0.113207
826 2 0.417624 0.856644 0.103965
827 2 0.4398 0.851803 0.113932
828 2 0.408553 0.886227 0.106465
829 1 0.393194 0.70645 0.110503
830 1 0.403674 0.717752 0.117145
831 1 0.41539 0.702352 0.119607
832 1 0.422905 0.718525 0.115125
833 2 0.40202 0.697511 0.127386
834 2 0.424912 0.718668 0.110434
835 2 0.388589 0.69922 0.113608
836 2 0.406983 0.709144 0.119802
837 2 0.432715 0.719256 0.117078
838 2 0.399486 0.700279 0.107598
839 2 0.413243 0.722619 0.116227
840 2 0.399086 0.71343 0.113178
841 1 0.40154 0.677304 0.111379
842 1 0.388179 0.689352 0.115636
843 1 0.407468 0.659609 0.123453
844 1 0.406334 0.684888 0.119092
845 2 0.394941 0.678354 0.130213
846 2 0.406382 0.677179 0.115789
847 2 0.406664 0.684518 0.108515
848 2 0.409546 0.684112 0.123691
849 2 0.412254 0.693206 0.117491
850 2 0.400061 0.667392 0.109755
851 2 0.396054 0.688404 0.118995
852 2 0.392082 0.682354 0.11232
853 1 0.388457 0.637248 0.113848
854 1 0.3756 0.661995 0.112647
855 1 0.386375 0.639853 0.123062
856 1 0.391325 0.655759 0.117808
857 2 0.376906 0.639836 0.125414
858 2 0.383774 0.662159 0.115901
859 2 0.387198 0.634649 0.118711
860 2 0.38716 0.65034 0.121643
861 2 0.400939 0.658788 0.119615
862 2 0.396325 0.633792 0.110905
863 2 0.3786 0.675809 0.129573
864 2 0.391913 0.647497 0.114713
865 1 0.407057 0.900323 0.117032
866 1 0.422876 0.908046 0.122685
867 1 0.453581 0.896065 0.123127
868 1 0.44276 0.91368 0.121568
869 2 0.401882 0.9145 0.130192
870 2 0.433394 0.903154 0.111055
871 2 0.405966 0.890099 0.118764
872 2 0.446033 0.903214 0.121701
873 2 0.431982 0.913472 0.121479
874 2 0.40921 0.899347 0.112308
875 2 0.426628 0.897864 0.123547
876 2 0.41488 0.905729 0.119467
877 1 0.384866 0.900342 0.108075
878 1 0.407371 0.882094 0.122023
879 1 0.438655 0.868825 0.130345
880 1 0.426982 0.88825 0.121213
881 2 0.434097 0.87137 0.141449
882 2 0.427284 0.890929 0.116423
883 2 0.405045 0.871677 0.121192
884 2 0.42848 0.859996 0.119288
885 2 0.435538 0.881946 0.121693
886 2 0.380464 0.895719 0.104129
887 2 0.418097 0.883041 0.122573
888 2 0.395121 0.897497 0.108213
889 1 0.38678 0.866487 0.116544
890 1 0.402547 0.861077 0.121643
891 1 0.435705 0.84798 0.128709
892 1 0.422191 0.852395 0.121588
893 2 0.414989 0.848306 0.134817