ITEM: TIMESTEP
40000
ITEM: NUMBER OF ATOMS
81498
ITEM: BOX BOUNDS pp pp pp
-3.6726245532760387e+01 1.3837401853276154e+02
-6.2040486174258035e+01 1.1301176417425805e+02
-1.5735656808983265e+00 3.3517648668089839e+02
ITEM: ATOMS id type xs ys zs
1 1 0.719377 0.776569 0.0219454
2 1 0.733676 0.774751 0.0265524
3 1 0.749051 0.752185 0.0303173
4 1 0.74577 0.767327 0.0287568
5 2 0.740468 0.753972 0.0414792
6 3 0.743732 0.76644 0.0332446
7 2 0.735778 0.764749 0.0268603
8 2 0.751142 0.760087 0.0281421
9 2 0.740974 0.751093 0.0283074
10 2 0.716678 0.785019 0.0206563
11 2 0.742743 0.775206 0.0270265
12 2 0.728754 0.775984 0.0226533
13 1 0.723289 0.74382 0.0231349
14 1 0.733055 0.755775 0.027089
15 1 0.747305 0.723108 0.0332979
16 1 0.750113 0.738126 0.034679
17 2 0.744812 0.72163 0.0436133
18 2 0.738893 0.721595 0.0349977
19 2 0.724791 0.738717 0.0270948
20 2 0.747736 0.73108 0.031089
21 2 0.752974 0.744472 0.0315257
22 2 0.725633 0.738764 0.0190522
23 2 0.741828 0.742443 0.0360869
24 2 0.728713 0.751601 0.023543
25 1 0.722807 0.720329 0.0242712
26 1 0.722763 0.732611 0.0303544
27 1 0.761907 0.694096 0.0394018
28 1 0.755672 0.709832 0.0368811
29 2 0.739157 0.698344 0.0430096
30 2 0.761462 0.702868 0.037347
31 2 0.720074 0.711872 0.0249648
32 2 0.748384 0.706487 0.0393063
33 2 0.752277 0.71535 0.0333991
34 2 0.730975 0.71992 0.0219728
35 2 0.757577 0.716926 0.0397784
36 2 0.724568 0.72432 0.0284754
37 1 0.719749 0.695419 0.0201456
38 1 0.71762 0.704649 0.0275506
39 1 0.756157 0.680301 0.0354707
40 1 0.749278 0.684017 0.0271275
41 2 0.738674 0.675189 0.0407919
42 2 0.75023 0.674482 0.0265891
43 2 0.71748 0.686811 0.0199793
44 2 0.762538 0.686702 0.0365704
45 2 0.754242 0.688809 0.024394
46 2 0.725271 0.699475 0.0171333
47 2 0.74001 0.684155 0.0271258
48 2 0.720447 0.697846 0.0248338
49 1 0.728504 0.671119 0.0203045
50 1 0.734175 0.677373 0.0283524
51 1 0.747444 0.651352 0.0322801
52 1 0.748688 0.669126 0.0302859
53 2 0.734787 0.654202 0.0417751
54 2 0.755293 0.671812 0.0333677
55 2 0.730145 0.662024 0.0197058
56 2 0.747966 0.65971 0.0303367
57 2 0.751659 0.685105 0.0318663
58 2 0.729456 0.675962 0.0164605
59 2 0.739647 0.671517 0.0310432
60 2 0.732256 0.673133 0.0243632
61 1 0.728542 0.653209 0.0206346
62 1 0.731398 0.647423 0.0294272
63 1 0.739595 0.623078 0.0295531
64 1 0.746715 0.63702 0.0318604
65 2 0.733818 0.627964 0.0408999
66 2 0.744849 0.633692 0.0361973
67 2 0.725757 0.640281 0.0300218
68 2 0.746184 0.629694 0.0291315
69 2 0.752525 0.643889 0.0317941
70 2 0.731946 0.648109 0.017089
71 2 0.74023 0.644653 0.0308648
72 2 0.731236 0.650324 0.0249166
73 1 0.717676 0.62251 0.0214891
74 1 0.723935 0.631439 0.028504
75 1 0.73164 0.585663 0.0313871
76 1 0.7364 0.606879 0.0287132
77 2 0.73025 0.605829 0.038875
78 2 0.735882 0.601192 0.025039
79 2 0.717774 0.614669 0.0242321
80 2 0.739185 0.603911 0.0328775
81 2 0.740252 0.61506 0.0273966
82 2 0.722434 0.621402 0.0175554
83 2 0.732162 0.627999 0.0283332
84 2 0.719944 0.62992 0.0241869
85 1 0.726701 0.590475 0.0145805
86 1 0.719195 0.60724 0.0267327
87 1 0.729318 0.571932 0.0325607
88 1 0.729216 0.595284 0.0234608
89 2 0.723378 0.574434 0.0434107
90 2 0.729361 0.592012 0.0190175
91 2 0.712529 0.590402 0.0320208
92 2 0.735933 0.577652 0.031106
93 2 0.729805 0.588855 0.027142
94 2 0.733574 0.591431 0.0113092
95 2 0.726997 0.608734 0.0292104
96 2 0.721346 0.600081 0.0240575
97 1 0.711361 0.572925 0.0238245
98 1 0.714742 0.581933 0.0312854
99 1 0.714677 0.548599 0.0345797
100 1 0.720283 0.559191 0.02759
101 2 0.711565 0.555587 0.0440509
102 2 0.72109 0.555666 0.0232631
103 2 0.713387 0.565583 0.0267878
104 2 0.719502 0.552939 0.0311583
105 2 0.725951 0.565605 0.0296807
106 2 0.716864 0.574156 0.0200719
107 2 0.723608 0.580043 0.0323755
108 2 0.713201 0.579773 0.0269579
109 1 0.702524 0.545017 0.0236472
110 1 0.699636 0.551939 0.0322
111 1 0.696631 0.525825 0.0365352
112 1 0.704074 0.536368 0.0308752
113 2 0.706257 0.534809 0.0456835
114 2 0.703031 0.537206 0.0260603
115 2 0.697925 0.542504 0.0325757
116 2 0.701439 0.528552 0.0329091
117 2 0.71151 0.54067 0.0326961
118 2 0.710072 0.546586 0.0211486
119 2 0.706803 0.55359 0.0348867
120 2 0.702281 0.551339 0.027558
121 1 0.685931 0.774428 0.0246191
122 1 0.704457 0.779708 0.0322742
123 1 0.732104 0.756433 0.0425092
124 1 0.71985 0.773771 0.0310824
125 2 0.720823 0.756909 0.0500857
126 2 0.728431 0.77613 0.0302568
127 2 0.702114 0.770766 0.031424
128 2 0.717259 0.774974 0.0264361
129 2 0.719707 0.765393 0.0327011
130 2 0.688133 0.768805 0.0209827
131 2 0.71323 0.778605 0.0335778
132 2 0.704594 0.784763 0.0285644
133 1 0.693559 0.749646 0.0295066
134 1 0.698515 0.764808 0.0345357
135 1 0.735672 0.721285 0.0450558
136 1 0.722328 0.756965 0.0343249
137 2 0.721918 0.730483 0.0543038
138 2 0.726747 0.754247 0.030365
139 2 0.69219 0.740236 0.042193
140 2 0.719086 0.741911 0.0501568
141 2 0.72818 0.757604 0.0380161
142 2 0.701146 0.747429 0.0269312
143 2 0.714985 0.753147 0.0365617
144 2 0.69575 0.756762 0.0324914
145 1 0.705697 0.73161 0.0338292
146 1 0.701243 0.740909 0.0413671
147 1 0.731212 0.70285 0.0432399
148 1 0.730662 0.723918 0.0367839
149 2 0.723341 0.712645 0.0498524
150 2 0.727149 0.731577 0.0345585
151 2 0.706632 0.723886 0.0365109
152 2 0.724911 0.716794 0.0365001
153 2 0.732055 0.725887 0.0414977
154 2 0.716197 0.726027 0.0227897
155 2 0.713481 0.733316 0.0313411
156 2 0.7033 0.738214 0.0370084
157 1 0.700414 0.704527 0.0308033
158 1 0.705412 0.714961 0.0373945
159 1 0.729578 0.674114 0.0399308
160 1 0.721369 0.708023 0.0364071
161 2 0.716308 0.679454 0.0494458
162 2 0.720955 0.705336 0.0319049
163 2 0.701882 0.697071 0.0332943
164 2 0.728463 0.700889 0.0476579
165 2 0.725462 0.702647 0.0397453
166 2 0.70812 0.705859 0.0282266
167 2 0.712639 0.709939 0.0377277
168 2 0.691876 0.705054 0.0288771
169 1 0.699691 0.684535 0.0253036
170 1 0.70414 0.688073 0.0339075
171 1 0.726845 0.650088 0.0428138
172 1 0.719024 0.680187 0.0334623
173 2 0.711302 0.656618 0.0500845
174 2 0.726307 0.678937 0.0304878
175 2 0.712585 0.67371 0.033054
176 2 0.727695 0.666128 0.0374188
177 2 0.724218 0.679899 0.0375633
178 2 0.707399 0.680366 0.0237162
179 2 0.713234 0.687278 0.0336258
180 2 0.700182 0.684455 0.0301364
181 1 0.700532 0.656147 0.0257842
182 1 0.709128 0.665229 0.0328953
183 1 0.725803 0.63225 0.0420333
184 1 0.724055 0.658505 0.0355793
185 2 0.712062 0.625839 0.0526334
186 2 0.729833 0.653603 0.0329431
187 2 0.699353 0.646522 0.0260615
188 2 0.727231 0.64114 0.0418799
189 2 0.720942 0.653843 0.0395364
190 2 0.705765 0.657347 0.0216667
191 2 0.716806 0.660236 0.0329119
192 2 0.704206 0.660616 0.029421
193 1 0.69696 0.637383 0.0258337
194 1 0.698983 0.629065 0.0333202
195 1 0.721385 0.60741 0.0390182
196 1 0.715303 0.623943 0.0359579
197 2 0.705102 0.613354 0.0478726
198 2 0.719361 0.626334 0.0317091
199 2 0.691241 0.623752 0.033407
200 2 0.718944 0.615723 0.0374138
201 2 0.718777 0.629295 0.0391668
202 2 0.698106 0.633296 0.0216996
203 2 0.706213 0.624459 0.0353719
204 2 0.70126 0.631967 0.0289436
205 1 0.689065 0.599363 0.0291225
206 1 0.694664 0.600634 0.0375102
207 1 0.719008 0.582125 0.0444093
208 1 0.711026 0.598989 0.0334244
209 2 0.700495 0.587693 0.0501322
210 2 0.712293 0.604624 0.0297328
211 2 0.690913 0.590225 0.0295032
212 2 0.714026 0.581452 0.0485832
213 2 0.717931 0.601652 0.03608
214 2 0.692467 0.601273 0.0248508
215 2 0.703355 0.600023 0.0361503
216 2 0.6913 0.603263 0.0332613
217 1 0.687616 0.581553 0.0299013
218 1 0.690303 0.582905 0.0388364
219 1 0.70515 0.562385 0.0440535
220 1 0.707435 0.577067 0.0387836
221 2 0.692793 0.56432 0.05405
222 2 0.710085 0.576305 0.0343511
223 2 0.6879 0.579892 0.0346508
224 2 0.708017 0.569125 0.0410034
225 2 0.71314 0.583174 0.0407049
226 2 0.692284 0.575401 0.0275809
227 2 0.698915 0.579838 0.0393191
228 2 0.691291 0.592381 0.0387081
229 1 0.683004 0.551759 0.0315406
230 1 0.685363 0.539796 0.038451
231 1 0.703005 0.54033 0.0491283
232 1 0.693016 0.551429 0.0437555
233 2 0.684778 0.528892 0.0502706
234 2 0.692505 0.56132 0.0242601
235 2 0.681647 0.544433 0.0345389
236 2 0.698047 0.546923 0.0469742
237 2 0.697398 0.559131 0.0428201
238 2 0.684699 0.550044 0.0268057
239 2 0.691698 0.545784 0.0400852
240 2 0.691056 0.555754 0.0329793
241 1 0.661122 0.777544 0.0299705
242 1 0.671921 0.777631 0.0374642
243 1 0.719794 0.763827 0.0471087
244 1 0.689671 0.778282 0.0372009
245 2 0.705318 0.781177 0.0530853
246 2 0.697221 0.782111 0.0351878
247 2 0.670883 0.770459 0.0402576
248 2 0.69204 0.769123 0.0369366
249 2 0.689619 0.78059 0.0419255
250 2 0.664786 0.777252 0.0254959
251 2 0.680782 0.778483 0.0364449
252 2 0.667445 0.776502 0.0333286
253 1 0.675793 0.753412 0.037481
254 1 0.675015 0.765451 0.0438285
255 1 0.714848 0.736254 0.0535447
256 1 0.709469 0.756222 0.0401609
257 2 0.699638 0.749079 0.05732
258 2 0.704743 0.76235 0.0377479
259 2 0.67944 0.745791 0.0394609
260 2 0.704314 0.749507 0.0417513
261 2 0.728275 0.763729 0.0451159
262 2 0.678706 0.756562 0.0331739
263 2 0.714021 0.760391 0.0436271
264 2 0.678088 0.758874 0.041134
265 1 0.681561 0.72199 0.0375147
266 1 0.683444 0.74153 0.0433943
267 1 0.714044 0.713707 0.0493118
268 1 0.705637 0.728319 0.0476603
269 2 0.697636 0.706355 0.0588333
270 2 0.70526 0.7351 0.044612
271 2 0.687695 0.720461 0.0411824
272 2 0.7009 0.713814 0.0417488
273 2 0.707242 0.732084 0.0519917
274 2 0.685502 0.72802 0.0345517
275 2 0.697586 0.723384 0.0469059
276 2 0.677874 0.734041 0.0439353
277 1 0.67988 0.704254 0.0365727
278 1 0.693587 0.717068 0.0442602
279 1 0.707232 0.679477 0.0500564
280 1 0.70216 0.705403 0.0447534
281 2 0.695785 0.691858 0.0593192
282 2 0.700194 0.711964 0.0338632
283 2 0.676679 0.697482 0.0391661
284 2 0.710049 0.707369 0.0467907
285 2 0.711942 0.721661 0.0472508
286 2 0.679586 0.702629 0.0319889
287 2 0.69466 0.709159 0.0468408
288 2 0.687997 0.702301 0.0386862
289 1 0.683842 0.680569 0.0331928
290 1 0.685188 0.693134 0.0393184
291 1 0.703326 0.661116 0.0494289
292 1 0.698982 0.688182 0.0426864
293 2 0.698934 0.661896 0.0617105
294 2 0.701805 0.685667 0.03844
295 2 0.688937 0.672798 0.0339456
296 2 0.703279 0.683855 0.046378
297 2 0.700956 0.697487 0.0429954
298 2 0.681424 0.681996 0.0289056
299 2 0.689572 0.688634 0.0426725
300 2 0.686001 0.688208 0.0353856
301 1 0.685643 0.653816 0.0360614
302 1 0.684253 0.669784 0.0376968
303 1 0.699561 0.619619 0.0493345
304 1 0.698147 0.661999 0.0405862
305 2 0.697405 0.648232 0.0579395
306 2 0.704603 0.664653 0.0372159
307 2 0.683609 0.645681 0.0379255
308 2 0.699714 0.65951 0.0450917
309 2 0.704871 0.67044 0.0498077
310 2 0.685829 0.653374 0.0314071
311 2 0.6913 0.668489 0.040856
312 2 0.693708 0.655217 0.0383261
313 1 0.682289 0.625353 0.0347181
314 1 0.688963 0.63864 0.0388206
315 1 0.683036 0.622058 0.0492369
316 1 0.694283 0.635077 0.0472329
317 2 0.691801 0.620494 0.0612835
318 2 0.695406 0.63665 0.0354845
319 2 0.675925 0.619195 0.0469579
320 2 0.686524 0.630285 0.0484803
321 2 0.699807 0.627688 0.0469192
322 2 0.678134 0.628681 0.0306314
323 2 0.692954 0.639019 0.0430368
324 2 0.683851 0.631133 0.0382976
325 1 0.668854 0.614083 0.0367496
326 1 0.672088 0.610894 0.0456123
327 1 0.692426 0.591795 0.0509165
328 1 0.689497 0.606557 0.0459478
329 2 0.674861 0.588859 0.0566842
330 2 0.693018 0.605637 0.0416279
331 2 0.664681 0.584558 0.0265321
332 2 0.692597 0.600568 0.0492558
333 2 0.69045 0.61602 0.0478506
334 2 0.669714 0.608919 0.0327518
335 2 0.680345 0.605958 0.0457954
336 2 0.669252 0.609998 0.0411965
337 1 0.662108 0.580943 0.0374879
338 1 0.666411 0.575764 0.0459025
339 1 0.684367 0.568025 0.0529596
340 1 0.682364 0.579346 0.0468309
341 2 0.662135 0.566009 0.0562258
342 2 0.684467 0.58004 0.0422096
343 2 0.667582 0.567001 0.0445967
344 2 0.685251 0.571278 0.0483511
345 2 0.686115 0.587279 0.0484591
346 2 0.668137 0.582872 0.0340268
347 2 0.673633 0.578618 0.0480681
348 2 0.665646 0.581068 0.0419025
349 1 0.656861 0.563302 0.0364455
350 1 0.664192 0.558651 0.0444643
351 1 0.680447 0.534555 0.0532657
352 1 0.677441 0.546304 0.0460891
353 2 0.660238 0.537667 0.0557086
354 2 0.679396 0.540752 0.042282
355 2 0.661228 0.560607 0.0324137
356 2 0.678693 0.541884 0.0503996
357 2 0.684601 0.551996 0.045781
358 2 0.6593 0.572179 0.0369935
359 2 0.66995 0.551618 0.0453886
360 2 0.660221 0.558429 0.0400698
361 1 0.654953 0.791727 0.0438821
362 1 0.657994 0.782479 0.0503108
363 1 0.696722 0.777597 0.0532513
364 1 0.670114 0.787364 0.0453742
365 2 0.675984 0.783426 0.0603309
366 2 0.669078 0.783965 0.0408123
367 2 0.656008 0.763777 0.0481378
368 2 0.679094 0.78656 0.0462038
369 2 0.663546 0.794174 0.0451867
370 2 0.654647 0.791114 0.0391842
371 2 0.666367 0.781477 0.04867
372 2 0.653929 0.783486 0.0460799
373 1 0.649751 0.761329 0.0447648
374 1 0.663859 0.761003 0.0505822
375 1 0.690667 0.747424 0.0576339
376 1 0.685696 0.779939 0.0461047
377 2 0.67604 0.751054 0.0666327
378 2 0.680591 0.772043 0.0456031
379 2 0.662318 0.752135 0.0518478
380 2 0.70142 0.769638 0.0530009
381 2 0.69151 0.779163 0.0496878
382 2 0.654173 0.754648 0.0420841
383 2 0.670292 0.761945 0.0474185
384 2 0.647982 0.7682 0.0416286
385 1 0.658535 0.733869 0.0454606
386 1 0.663292 0.743147 0.0530693
387 1 0.694411 0.699989 0.0618096
388 1 0.680968 0.745591 0.0524771
389 2 0.673035 0.705167 0.0686569
390 2 0.681966 0.74577 0.0475259
391 2 0.664121 0.726769 0.0452509
392 2 0.687572 0.740705 0.0546312
393 2 0.683956 0.752575 0.0549295
394 2 0.663699 0.737149 0.0416314
395 2 0.672635 0.742397 0.0535234
396 2 0.660657 0.738664 0.0492803
397 1 0.641975 0.615315 0.0438272
398 1 0.646117 0.607671 0.0519433
399 1 0.666413 0.592566 0.0573962
400 1 0.662169 0.60763 0.0533472
401 2 0.650398 0.59975 0.0647481
402 2 0.666695 0.60919 0.0492942
403 2 0.641091 0.606353 0.0428954
404 2 0.6664 0.60145 0.055946
405 2 0.658543 0.615169 0.0556872
406 2 0.647425 0.618608 0.0402708
407 2 0.654249 0.603839 0.052043
408 2 0.645877 0.613481 0.0482996
409 1 0.639461 0.598205 0.0448131
410 1 0.6414 0.590707 0.0522569
411 1 0.653195 0.566873 0.0569638
412 1 0.655625 0.581709 0.0522889
413 2 0.640709 0.569007 0.0665008
414 2 0.659261 0.576852 0.0487015
415 2 0.634738 0.584078 0.0515561
416 2 0.651691 0.575983 0.0555177
417 2 0.661197 0.587456 0.0543751
418 2 0.644238 0.592325 0.0421945
419 2 0.648653 0.586888 0.0503761
420 2 0.640697 0.598986 0.0499151
421 1 0.636087 0.564269 0.04481
422 1 0.632591 0.575319 0.0511068
423 1 0.656978 0.546005 0.0550215
424 1 0.648998 0.556455 0.0496594
425 2 0.635964 0.543935 0.0593074
426 2 0.656947 0.558856 0.0475409
427 2 0.642265 0.558347 0.0466124
428 2 0.65178 0.547859 0.0512166
429 2 0.648843 0.561111 0.0538988
430 2 0.636817 0.566617 0.0401123
431 2 0.637603 0.571651 0.0475549
432 2 0.623958 0.573018 0.0494708
433 1 0.626977 0.796622 0.0514856
434 1 0.636428 0.79026 0.0588744
435 1 0.667254 0.782524 0.0622046
436 1 0.653951 0.787853 0.0567357
437 2 0.653895 0.78938 0.0712093
438 2 0.653244 0.779351 0.0540453
439 2 0.635245 0.781401 0.0582098
440 2 0.660372 0.786893 0.0600115
441 2 0.657727 0.79062 0.0525296
442 2 0.632469 0.797243 0.0480117
443 2 0.64583 0.791246 0.0582755
444 2 0.630621 0.794297 0.0556129
445 1 0.631331 0.758718 0.0561463
446 1 0.635223 0.773406 0.0607058
447 1 0.667484 0.753058 0.065054
448 1 0.670056 0.766334 0.0589731
449 2 0.647761 0.754867 0.0693498
450 2 0.666281 0.765397 0.0545962
451 2 0.6356 0.751121 0.0579318
452 2 0.678514 0.770266 0.0585282
453 2 0.666032 0.773338 0.0614987
454 2 0.631406 0.759206 0.0514576
455 2 0.668453 0.759041 0.061501
456 2 0.635053 0.765968 0.0580606
457 1 0.633543 0.738389 0.0523987
458 1 0.638641 0.743028 0.0600886
459 1 0.67077 0.714572 0.0692894
460 1 0.656092 0.73995 0.0616529
461 2 0.648573 0.723163 0.0695986
462 2 0.659326 0.739834 0.0571574
463 2 0.635618 0.732438 0.048787
464 2 0.656458 0.73212 0.064376
465 2 0.662305 0.746094 0.0634739
466 2 0.640912 0.742702 0.0500656
467 2 0.647446 0.742736 0.0609825
468 2 0.63563 0.737358 0.0568614
469 1 0.627541 0.614213 0.0568406
470 1 0.638407 0.621775 0.0624103
471 1 0.647598 0.608193 0.0659829
472 1 0.651841 0.61657 0.0589917
473 2 0.631949 0.609779 0.0733043
474 2 0.645446 0.611185 0.0563259
475 2 0.629402 0.605988 0.0585767
476 2 0.640753 0.613654 0.0644292
477 2 0.654064 0.612303 0.063114
478 2 0.629072 0.614596 0.0520679
479 2 0.646534 0.623593 0.0602468
480 2 0.632495 0.620287 0.0591526
481 1 0.617526 0.590334 0.0544122
482 1 0.627574 0.598447 0.0610546
483 1 0.634455 0.57511 0.065636
484 1 0.641456 0.58864 0.0615244
485 2 0.621648 0.586565 0.0729184
486 2 0.643019 0.591578 0.0568096
487 2 0.612669 0.583439 0.0561059
488 2 0.6367 0.580733 0.0618836
489 2 0.649608 0.586467 0.0633456
490 2 0.620234 0.589288 0.0500027
491 2 0.635556 0.594965 0.0626813
492 2 0.624186 0.592213 0.0578183
493 1 0.607272 0.560644 0.0522715
494 1 0.611937 0.57457 0.057406
495 1 0.630977 0.550917 0.0614128
496 1 0.62803 0.567174 0.0585873
497 2 0.616149 0.550123 0.0710607
498 2 0.633478 0.570868 0.055198
499 2 0.610084 0.554645 0.0551904
500 2 0.627922 0.558117 0.0588951
501 2 0.628235 0.570576 0.0631662
502 2 0.612988 0.562414 0.0487604
503 2 0.619871 0.570356 0.0571141
504 2 0.606213 0.569677 0.0546885
505 1 0.602723 0.79062 0.0599584
506 1 0.614346 0.79422 0.0664441
507 1 0.644957 0.791304 0.0715748
508 1 0.630949 0.796027 0.0675697
509 2 0.633572 0.781541 0.0761023
510 2 0.633602 0.792979 0.0630641
511 2 0.604508 0.782025 0.061084
512 2 0.618292 0.785607 0.0655288
513 2 0.639827 0.797442 0.0689556
514 2 0.605292 0.792092 0.0555038
515 2 0.622303 0.799266 0.0669101
516 2 0.608287 0.79561 0.0630012
517 1 0.601758 0.760051 0.0615238
518 1 0.60377 0.775876 0.0646567
519 1 0.639391 0.758089 0.0702561
520 1 0.644541 0.774283 0.0686428
521 2 0.624355 0.754385 0.0783555
522 2 0.641924 0.773727 0.0640209
523 2 0.605727 0.754386 0.0646698
524 2 0.640991 0.766926 0.0710322
525 2 0.653773 0.775556 0.0694728
526 2 0.608219 0.761007 0.0580536
527 2 0.627116 0.773558 0.0631239
528 2 0.599229 0.768267 0.0634882
529 1 0.60448 0.737092 0.0572246
530 1 0.610596 0.746442 0.0646229
531 1 0.642703 0.725174 0.0733149
532 1 0.627784 0.748152 0.0660801
533 2 0.624545 0.71776 0.0786168
534 2 0.633862 0.742429 0.0641489
535 2 0.612493 0.736332 0.0545827
536 2 0.624187 0.745809 0.0704302
537 2 0.632726 0.755501 0.0670264
538 2 0.598375 0.741107 0.0541026
539 2 0.619768 0.74864 0.0637462
540 2 0.607003 0.741604 0.0611847
541 1 0.605563 0.626493 0.0658422
542 1 0.616757 0.62934 0.0728641
543 1 0.622977 0.611535 0.0742906
544 1 0.633503 0.629948 0.0701794
545 2 0.610837 0.611441 0.0833444
546 2 0.635711 0.627342 0.0658236
547 2 0.601803 0.61874 0.067532
548 2 0.619765 0.620132 0.0735285
549 2 0.638888 0.629378 0.0735871
550 2 0.609854 0.625182 0.0615969
551 2 0.625086 0.632374 0.0713263
552 2 0.611569 0.6289 0.0690247
553 1 0.593738 0.59966 0.0613911
554 1 0.599865 0.609762 0.0676798
555 1 0.612901 0.585413 0.0719084
556 1 0.615078 0.60106 0.0679145
557 2 0.601351 0.587694 0.0826581
558 2 0.622087 0.600033 0.0647832
559 2 0.594907 0.593303 0.0648611
560 2 0.611581 0.593193 0.0693069
561 2 0.618279 0.605328 0.0718555
562 2 0.598427 0.599154 0.0573246
563 2 0.60819 0.60632 0.0664894
564 2 0.594738 0.607256 0.0639402
565 1 0.592384 0.570136 0.0630708
566 1 0.591371 0.585469 0.0665923
567 1 0.614032 0.558768 0.0723544
568 1 0.607897 0.570564 0.0665052
569 2 0.605974 0.573618 0.0807466
570 2 0.609601 0.573665 0.0622416
571 2 0.599185 0.567311 0.0660169
572 2 0.612897 0.56365 0.0682589
573 2 0.610059 0.577931 0.069342
574 2 0.593525 0.568481 0.0584091
575 2 0.594405 0.579032 0.0636938
576 2 0.58225 0.584515 0.0658042
577 1 0.575953 0.784105 0.0685024
578 1 0.588023 0.790149 0.0745323
579 1 0.626011 0.782779 0.0734709
580 1 0.600139 0.788189 0.0711415
581 2 0.593351 0.7576 0.0863544
582 2 0.608196 0.792357 0.0699437
583 2 0.576252 0.774885 0.068557
584 2 0.600094 0.781572 0.0678619
585 2 0.595232 0.784287 0.0748244
586 2 0.581838 0.787269 0.0651561
587 2 0.593118 0.794014 0.0712107
588 2 0.579891 0.786624 0.0728114
589 1 0.576779 0.752812 0.0665197
590 1 0.575346 0.767666 0.071375
591 1 0.616331 0.758748 0.0779635
592 1 0.620627 0.776734 0.0658792
593 2 0.603946 0.746955 0.0865048
594 2 0.612218 0.773346 0.065668
595 2 0.577048 0.744152 0.0687872
596 2 0.628467 0.790659 0.07145
597 2 0.624415 0.776527 0.0701849
598 2 0.58131 0.753009 0.0625232
599 2 0.641847 0.783121 0.0697321
600 2 0.578794 0.75991 0.0693419
601 1 0.58353 0.730842 0.0652525
602 1 0.584316 0.740254 0.0716621
603 1 0.617655 0.720574 0.0814948
604 1 0.615967 0.745685 0.072539
605 2 0.598706 0.711606 0.0861917
606 2 0.610942 0.742705 0.068967
607 2 0.585716 0.724024 0.0622216
608 2 0.61878 0.729773 0.0816578
609 2 0.613244 0.754244 0.0741328
610 2 0.585701 0.736614 0.061636
611 2 0.616762 0.740451 0.0763508
612 2 0.58823 0.734479 0.0689481
613 1 0.576708 0.626695 0.0701522
614 1 0.587457 0.624147 0.0766614
615 1 0.602925 0.61581 0.082868
616 1 0.602694 0.63149 0.0785546
617 2 0.584946 0.618328 0.0900099
618 2 0.610889 0.632402 0.0763351
619 2 0.575016 0.617554 0.0714543
620 2 0.604356 0.624357 0.0815414
621 2 0.596297 0.636295 0.0812668
622 2 0.583233 0.628477 0.0669233
623 2 0.595654 0.627896 0.0756955
624 2 0.581529 0.629054 0.0742065
625 1 0.576812 0.597291 0.0712303
626 1 0.57752 0.610732 0.074499
627 1 0.592979 0.591602 0.0820212
628 1 0.592651 0.60676 0.0763189
629 2 0.577097 0.591936 0.0891417
630 2 0.597249 0.606952 0.0720292
631 2 0.5755 0.589513 0.0735411
632 2 0.591891 0.599262 0.0792879
633 2 0.598222 0.611551 0.0793507
634 2 0.57634 0.59902 0.0666404
635 2 0.586051 0.615344 0.0757541
636 2 0.582942 0.60323 0.0732926
637 1 0.562804 0.571144 0.061361
638 1 0.57303 0.580714 0.0745791
639 1 0.601696 0.56639 0.0783595
640 1 0.590002 0.578785 0.0752368
641 2 0.585159 0.562435 0.086178
642 2 0.592606 0.583465 0.0711951
643 2 0.568157 0.566362 0.0588057
644 2 0.595434 0.571835 0.0760651
645 2 0.589722 0.584501 0.0791585
646 2 0.568772 0.5781 0.062711
647 2 0.58118 0.576288 0.0746531
648 2 0.566935 0.577544 0.071333
649 1 0.550889 0.780157 0.0719987
650 1 0.560756 0.787633 0.0781461
651 1 0.59064 0.766171 0.086362
652 1 0.574965 0.786884 0.0782498
653 2 0.56997 0.773837 0.0903039
654 2 0.58319 0.791985 0.0783718
655 2 0.552755 0.771887 0.0738
656 2 0.577822 0.779513 0.0809941
657 2 0.568029 0.792578 0.079041
658 2 0.555343 0.779387 0.0678089
659 2 0.567111 0.781697 0.0762821
660 2 0.554252 0.786876 0.0745688
661 1 0.550405 0.754719 0.0677484
662 1 0.558303 0.764681 0.0740182
663 1 0.594838 0.748298 0.0858631
664 1 0.579104 0.770683 0.0802166
665 2 0.572976 0.735319 0.0985844
666 2 0.579432 0.769598 0.0755519
667 2 0.550689 0.746308 0.0661313
668 2 0.572442 0.765262 0.0819588
669 2 0.587329 0.768488 0.0822732
670 2 0.554605 0.75944 0.0640004
671 2 0.566852 0.766165 0.0721247
672 2 0.555729 0.756921 0.0714881
673 1 0.557663 0.738235 0.0747507
674 1 0.567761 0.744243 0.0818782
675 1 0.594522 0.717165 0.089367
676 1 0.584545 0.745155 0.0785648
677 2 0.574775 0.71516 0.0941339
678 2 0.586054 0.747979 0.07408
679 2 0.552614 0.730515 0.0751167
680 2 0.583303 0.736787 0.0761663
681 2 0.591742 0.746303 0.0813738
682 2 0.563246 0.738286 0.0706822
683 2 0.576604 0.746479 0.0805255
684 2 0.56334 0.741449 0.0780377
685 1 0.557839 0.63228 0.0791271
686 1 0.571037 0.634858 0.0852923
687 1 0.57578 0.618994 0.0894757
688 1 0.588527 0.633473 0.0839031
689 2 0.564663 0.624392 0.0996554
690 2 0.586042 0.626039 0.0812297
691 2 0.555524 0.624499 0.0816696
692 2 0.572509 0.626427 0.087147
693 2 0.591612 0.629739 0.0880634
694 2 0.559076 0.631007 0.0744572
695 2 0.580068 0.637634 0.0845171
696 2 0.565787 0.634313 0.0812311
697 1 0.548606 0.605148 0.0770872
698 1 0.553994 0.615804 0.0831259
699 1 0.568571 0.591864 0.0873383
700 1 0.569839 0.607401 0.0829843
701 2 0.557159 0.599236 0.0975569
702 2 0.574997 0.608988 0.0789976
703 2 0.548887 0.597917 0.0799287
704 2 0.568786 0.598342 0.0839662
705 2 0.573465 0.612083 0.0867129
706 2 0.555625 0.606217 0.0738227
707 2 0.561461 0.610693 0.0821539
708 2 0.547936 0.612232 0.08011
709 1 0.551821 0.574735 0.0777234
710 1 0.547086 0.589387 0.0809246
711 1 0.57806 0.566265 0.0881025
712 1 0.565978 0.576261 0.0829262
713 2 0.561443 0.564678 0.093972
714 2 0.569391 0.57978 0.0789139
715 2 0.557775 0.572553 0.0813089
716 2 0.571597 0.570528 0.0852634
717 2 0.565676 0.583613 0.085916
718 2 0.554799 0.572166 0.0734954
719 2 0.552057 0.584005 0.078068
720 2 0.538625 0.586951 0.0798129
721 1 0.526291 0.782879 0.0797328
722 1 0.537015 0.783909 0.0867797
723 1 0.561011 0.772334 0.0896431
724 1 0.550562 0.783713 0.0857184
725 2 0.546497 0.771076 0.0990491
726 2 0.555438 0.785907 0.081914
727 2 0.522275 0.775699 0.082047
728 2 0.556901 0.780157 0.0884279
729 2 0.544655 0.789585 0.0875819
730 2 0.530645 0.779392 0.0760606
731 2 0.543452 0.778099 0.0847952
732 2 0.531649 0.786124 0.0832578
733 1 0.526819 0.754974 0.0784495
734 1 0.521083 0.767654 0.0841391
735 1 0.565511 0.740106 0.0971727
736 1 0.564118 0.761138 0.0826212
737 2 0.550552 0.738901 0.106744
738 2 0.559659 0.762146 0.0785274
739 2 0.532076 0.75011 0.0816836
740 2 0.567634 0.748762 0.0969043
741 2 0.560338 0.765973 0.0861695
742 2 0.531803 0.757157 0.0745732
743 2 0.564752 0.752309 0.0833033
744 2 0.524337 0.762283 0.0808386
745 1 0.532464 0.728146 0.0819764
746 1 0.529294 0.744928 0.0852564
747 1 0.566099 0.717887 0.0938926
748 1 0.568557 0.733302 0.0891928
749 2 0.548721 0.726479 0.0965735
750 2 0.567919 0.737464 0.0851116
751 2 0.535291 0.722168 0.0849504
752 2 0.566242 0.724206 0.0905263
753 2 0.577232 0.735206 0.0906035
754 2 0.53952 0.730692 0.07912
755 2 0.563563 0.736992 0.0927651
756 2 0.530702 0.736234 0.084344
757 1 0.533 0.636285 0.0850356
758 1 0.540788 0.643466 0.0922901
759 1 0.556737 0.626211 0.097325
760 1 0.558588 0.640292 0.0920208
761 2 0.541716 0.631836 0.106307
762 2 0.565083 0.639002 0.0882326
763 2 0.533563 0.627975 0.0871589
764 2 0.558291 0.631484 0.0935
765 2 0.562497 0.646188 0.0947271
766 2 0.536299 0.636141 0.0806223
767 2 0.549512 0.642425 0.0918815
768 2 0.537369 0.642867 0.0877564
769 1 0.529881 0.605866 0.0843341
770 1 0.533292 0.620578 0.0896933
771 1 0.548277 0.598126 0.0966253
772 1 0.54865 0.614133 0.0923375
773 2 0.53287 0.601838 0.104368
774 2 0.552594 0.614278 0.0878965
775 2 0.531904 0.59802 0.0866233
776 2 0.546633 0.605795 0.0940325
777 2 0.553456 0.618552 0.0957226
778 2 0.532372 0.606131 0.0797571
779 2 0.541379 0.61935 0.0919295
780 2 0.532175 0.613207 0.086831
781 1 0.517543 0.574219 0.0765697
782 1 0.529908 0.589557 0.0883819
783 1 0.553506 0.569656 0.0941669
784 1 0.546656 0.584675 0.0899619
785 2 0.539597 0.575802 0.101506
786 2 0.548771 0.58762 0.0855724
787 2 0.517603 0.56638 0.0746748
788 2 0.550876 0.576036 0.0911713
789 2 0.547692 0.590656 0.0936781
790 2 0.526546 0.57752 0.0766092
791 2 0.537291 0.583964 0.0894723
792 2 0.524232 0.585961 0.0852803
793 1 0.502577 0.781343 0.0863875
794 1 0.510528 0.775239 0.0943508
795 1 0.540976 0.768639 0.102632
796 1 0.527659 0.772949 0.0919046
797 2 0.528126 0.782031 0.110348
798 2 0.532546 0.78012 0.090466
799 2 0.500127 0.773035 0.0848475
800 2 0.53105 0.767179 0.0951694
801 2 0.519339 0.775152 0.0935064
802 2 0.508871 0.784112 0.0834591
803 2 0.520734 0.759594 0.0987932
804 2 0.50617 0.779276 0.0906804
805 1 0.499397 0.750042 0.0810281
806 1 0.50368 0.76442 0.0855084
807 1 0.543911 0.742605 0.103977
808 1 0.529379 0.759996 0.0980515
809 2 0.525002 0.751035 0.110973
810 2 0.526528 0.767945 0.0879693
811 2 0.504446 0.746863 0.0846643
812 2 0.532515 0.752407 0.0963298
813 2 0.534558 0.762676 0.101859
814 2 0.503958 0.748565 0.0769906
815 2 0.512742 0.765725 0.0856529
816 2 0.501857 0.759245 0.0817971
817 1 0.49907 0.725963 0.0815505
818 1 0.511911 0.742069 0.0856708
819 1 0.540513 0.731514 0.0969642
820 1 0.530992 0.74474 0.0938052
821 2 0.528357 0.717813 0.105018
822 2 0.531333 0.748058 0.0893454
823 2 0.490693 0.72395 0.0797498
824 2 0.536644 0.737408 0.0941766
825 2 0.542512 0.737092 0.100437
826 2 0.507098 0.724213 0.0794832
827 2 0.519974 0.746078 0.0854038
828 2 0.512562 0.735449 0.0822854
829 1 0.50554 0.638854 0.0914476
830 1 0.512685 0.646512 0.0983226
831 1 0.533666 0.632181 0.104133
832 1 0.530826 0.643941 0.0975067
833 2 0.516222 0.638576 0.111237
834 2 0.534324 0.637465 0.0944239
835 2 0.508122 0.63204 0.0942185
836 2 0.532772 0.640086 0.101761
837 2 0.536843 0.649601 0.0955152
838 2 0.509425 0.637579 0.0870944
839 2 0.521912 0.64611 0.0978809
840 2 0.508837 0.645657 0.0940909
841 1 0.504282 0.614068 0.0918482
842 1 0.510553 0.62566 0.0975405
843 1 0.524517 0.604194 0.102516
844 1 0.526725 0.620834 0.0983244
845 2 0.509913 0.611658 0.111251
846 2 0.527336 0.620305 0.093531
847 2 0.499909 0.607438 0.0943333
848 2 0.525453 0.611952 0.0999785
849 2 0.533194 0.625297 0.100996
850 2 0.509311 0.611762 0.0882362
851 2 0.519386 0.626031 0.0991622
852 2 0.509842 0.618237 0.0949148
853 1 0.507652 0.585586 0.0921675
854 1 0.49922 0.598918 0.0956748
855 1 0.531052 0.57819 0.102566
856 1 0.521691 0.589389 0.0967842
857 2 0.515862 0.57942 0.109367
858 2 0.525844 0.590988 0.0926731
859 2 0.513947 0.584599 0.0957564
860 2 0.527209 0.583223 0.0991625
861 2 0.520891 0.597304 0.0995738
862 2 0.511285 0.584065 0.0879686
863 2 0.505336 0.59444 0.0928935
864 2 0.491768 0.593973 0.0943776
865 1 0.478994 0.774593 0.0904188
866 1 0.487515 0.768574 0.0982364
867 1 0.521322 0.786646 0.112601
868 1 0.501291 0.779065 0.101681
869 2 0.510023 0.769203 0.113061
870 2 0.507883 0.779651 0.0984648
871 2 0.491919 0.761331 0.0963615
872 2 0.506439 0.758152 0.10224
873 2 0.497889 0.787681 0.103053
874 2 0.484619 0.77754 0.087109
875 2 0.494308 0.773886 0.100045
876 2 0.483223 0.772842 0.0945274
877 1 0.477748 0.757966 0.0886811
878 1 0.494246 0.756751 0.0923171
879 1 0.519455 0.748468 0.11466
880 1 0.51177 0.759305 0.0982554
881 2 0.504525 0.762698 0.119891
882 2 0.508774 0.766235 0.0953209
883 2 0.486222 0.75712 0.0900136
884 2 0.511531 0.751648 0.0956102
885 2 0.512194 0.786531 0.111247
886 2 0.477803 0.755082 0.0840308
887 2 0.500224 0.761028 0.0894417