ITEM: TIMESTEP
240064
ITEM: NUMBER OF ATOMS
81498
ITEM: BOX BOUNDS pp pp pp
-2.4144509787239315e+01 1.2584906978709705e+02
-4.9571220394413714e+01 1.0042349339441371e+02
1.1547147761240240e-01 3.3351764152238411e+02
ITEM: ATOMS id type xs ys zs
1 1 0.748639 0.828515 0.0187995
2 1 0.756965 0.833477 0.0338426
3 1 0.797049 0.795575 0.030893
4 1 0.770135 0.818192 0.0358293
5 2 0.7735 0.800669 0.0416018
6 3 0.76043 0.809864 0.0224137
7 2 0.751392 0.819389 0.0211191
8 2 0.789793 0.802748 0.0293706
9 2 0.773869 0.817446 0.040458
10 2 0.755533 0.829687 0.0151644
11 2 0.765213 0.826677 0.0337456
12 2 0.75927 0.838432 0.038114
13 1 0.783103 0.807248 0.0157407
14 1 0.770346 0.805371 0.0224967
15 1 0.824508 0.783864 0.0234982
16 1 0.807748 0.795 0.0229234
17 2 0.787764 0.775703 0.0374304
18 2 0.8057 0.803088 0.0198749
19 2 0.792787 0.81186 0.0149101
20 2 0.818017 0.792067 0.0231088
21 2 0.80456 0.795479 0.0275256
22 2 0.778685 0.803071 0.0118345
23 2 0.801372 0.787229 0.0210732
24 2 0.776293 0.81011 0.0191153
25 1 0.799532 0.789535 0.00951207
26 1 0.799043 0.803396 0.0161652
27 1 0.828916 0.754551 0.0186336
28 1 0.826507 0.774545 0.0175629
29 2 0.821197 0.752316 0.015463
30 2 0.830882 0.764955 0.0179968
31 2 0.805581 0.781015 0.010674
32 2 0.819345 0.775447 0.0212563
33 2 0.831602 0.782645 0.0198491
34 2 0.799678 0.789631 0.0046788
35 2 0.821607 0.776036 0.013409
36 2 0.802387 0.797825 0.0123512
37 1 0.818457 0.765831 0.00199503
38 1 0.813166 0.773485 0.0105574
39 1 0.847297 0.724821 0.0181872
40 1 0.841774 0.739451 0.0162042
41 2 0.831205 0.719296 0.0253766
42 2 0.851292 0.734794 0.0173317
43 2 0.790152 0.775126 0.00335002
44 2 0.837784 0.730279 0.0182356
45 2 0.837442 0.748206 0.0178915
46 2 0.807731 0.77443 0.991906
47 2 0.838757 0.738241 0.0116689
48 2 0.816286 0.771259 0.00601843
49 1 0.819497 0.7466 0.00485915
50 1 0.830974 0.732661 0.00939678
51 1 0.839924 0.68405 0.0181883
52 1 0.839814 0.714806 0.0112393
53 2 0.822923 0.701273 0.0233828
54 2 0.841293 0.705124 0.00917594
55 2 0.826936 0.739325 0.0061204
56 2 0.84097 0.692172 0.0150336
57 2 0.847233 0.718999 0.0141668
58 2 0.814213 0.742071 0.00122998
59 2 0.835315 0.72276 0.00879417
60 2 0.822665 0.756468 0.00331825
61 1 0.80679 0.707197 0.00393165
62 1 0.815492 0.6947 0.0105549
63 1 0.82794 0.66825 0.014993
64 1 0.83554 0.699119 0.0123536
65 2 0.812544 0.662055 0.0212179
66 2 0.826261 0.694974 0.0109821
67 2 0.806644 0.699101 0.000689097
68 2 0.817434 0.670708 0.015331
69 2 0.834125 0.676556 0.0159772
70 2 0.811561 0.715696 0.00176656
71 2 0.833658 0.708933 0.0144012
72 2 0.812322 0.702376 0.00741655
73 1 0.808485 0.689619 0.998912
74 1 0.810451 0.677604 0.00575232
75 1 0.812441 0.642522 0.0090239
76 1 0.821807 0.660218 0.00751871
77 2 0.802054 0.636855 0.0185581
78 2 0.825787 0.654306 0.00385601
79 2 0.794368 0.66819 0.998343
80 2 0.815968 0.652673 0.00980904
81 2 0.829035 0.663855 0.010674
82 2 0.809676 0.689407 0.99417
83 2 0.815701 0.668438 0.00620541
84 2 0.81359 0.683058 0.00170401
85 1 0.790615 0.658117 0.998043
86 1 0.793732 0.64901 0.00599298
87 1 0.797397 0.617112 0.0169334
88 1 0.826105 0.644212 0.00248093
89 2 0.790032 0.626135 0.0277376
90 2 0.832334 0.640083 0.999651
91 2 0.784405 0.643932 0.00641713
92 2 0.806252 0.621688 0.0152012
93 2 0.818946 0.639788 0.00529612
94 2 0.789003 0.656131 0.993413
95 2 0.802282 0.643549 0.00760963
96 2 0.795679 0.652429 0.00148052
97 1 0.761785 0.627775 0.0061967
98 1 0.775862 0.641785 0.00917763
99 1 0.787417 0.602273 0.0206418
100 1 0.780898 0.629706 0.0164067
101 2 0.757055 0.590892 0.0271836
102 2 0.794095 0.606871 0.0174009
103 2 0.761215 0.621549 0.010508
104 2 0.787453 0.60981 0.0242575
105 2 0.788697 0.622521 0.0154714
106 2 0.77012 0.633535 0.00781301
107 2 0.77172 0.624263 0.0167611
108 2 0.769351 0.650023 0.0103425
109 1 0.733746 0.613801 0.015263
110 1 0.755158 0.629256 0.0222775
111 1 0.753909 0.588451 0.0226448
112 1 0.766854 0.601717 0.0190804
113 2 0.737221 0.580481 0.0379418
114 2 0.763884 0.608724 0.0156963
115 2 0.713622 0.594715 0.0266462
116 2 0.76126 0.592655 0.0195961
117 2 0.777498 0.600713 0.0191016
118 2 0.737528 0.608894 0.00383136
119 2 0.763786 0.607021 0.0230892
120 2 0.740687 0.612538 0.0115385
121 1 0.72604 0.843177 0.0268848
122 1 0.732229 0.821436 0.0280567
123 1 0.779193 0.80954 0.042788
124 1 0.752079 0.833069 0.0408962
125 2 0.767839 0.804973 0.0549672
126 2 0.748946 0.828896 0.0365323
127 2 0.752238 0.837835 0.0299803
128 2 0.762236 0.81087 0.0353292
129 2 0.753799 0.824096 0.0434845
130 2 0.736534 0.846402 0.0268171
131 2 0.746136 0.840736 0.0428786
132 2 0.737251 0.83072 0.0276533
133 1 0.743387 0.794883 0.0184874
134 1 0.744238 0.838692 0.0266349
135 1 0.789808 0.775618 0.0327253
136 1 0.780243 0.805917 0.0308496
137 2 0.787271 0.791648 0.0397865
138 2 0.773994 0.806252 0.0269927
139 2 0.770918 0.794707 0.0218455
140 2 0.799298 0.79897 0.0353667
141 2 0.778266 0.798597 0.0343416
142 2 0.749613 0.797812 0.0147855
143 2 0.778441 0.815084 0.0331518
144 2 0.747758 0.83612 0.0221977
145 1 0.751915 0.774203 0.0121441
146 1 0.773738 0.785393 0.0240255
147 1 0.804841 0.767359 0.0280554
148 1 0.793875 0.779616 0.0216591
149 2 0.792906 0.746447 0.0321643
150 2 0.789385 0.799371 0.0177051
151 2 0.757829 0.774616 0.0160698
152 2 0.798391 0.769641 0.0318351
153 2 0.792612 0.785666 0.0313886
154 2 0.757824 0.779196 0.00880746
155 2 0.784466 0.783382 0.0236267
156 2 0.769016 0.777109 0.0219173
157 1 0.785306 0.766993 0.0150175
158 1 0.765823 0.770305 0.0185088
159 1 0.823021 0.726171 0.0246351
160 1 0.811771 0.753366 0.0131631
161 2 0.806014 0.739502 0.02857
162 2 0.810215 0.763857 0.0122644
163 2 0.788241 0.757247 0.0165489
164 2 0.799322 0.772908 0.0246787
165 2 0.815072 0.769576 0.0294537
166 2 0.787054 0.767196 0.0102551
167 2 0.803877 0.750409 0.0161088
168 2 0.790719 0.774204 0.0177208
169 1 0.795962 0.730555 0.013659
170 1 0.793666 0.748228 0.0172717
171 1 0.812355 0.701592 0.0238954
172 1 0.815826 0.726187 0.0155306
173 2 0.793517 0.707381 0.0300515
174 2 0.822894 0.730476 0.0124753
175 2 0.791185 0.723143 0.016383
176 2 0.813377 0.715963 0.01448
177 2 0.819094 0.726498 0.0201337
178 2 0.783923 0.758397 0.00326295
179 2 0.806293 0.73104 0.0149269
180 2 0.791534 0.740158 0.0141905
181 1 0.773803 0.707309 0.00859964
182 1 0.786717 0.713298 0.0153177
183 1 0.808262 0.668567 0.0176929
184 1 0.806824 0.707927 0.0157644
185 2 0.790854 0.67811 0.0337588
186 2 0.8109 0.698356 0.0145513
187 2 0.786135 0.704075 0.0178776
188 2 0.809116 0.691448 0.0235354
189 2 0.807287 0.707588 0.0206208
190 2 0.782838 0.713544 0.00994595
191 2 0.797344 0.709871 0.0137816
192 2 0.76431 0.711408 0.00995307
193 1 0.783429 0.689552 0.0101983
194 1 0.785405 0.693715 0.0188413
195 1 0.793342 0.642303 0.0199062
196 1 0.801317 0.684322 0.0229039
197 2 0.780511 0.65642 0.0271698
198 2 0.812328 0.685017 0.0091063
199 2 0.800162 0.676237 0.00452662
200 2 0.800579 0.664268 0.015103
201 2 0.804251 0.677267 0.0196529
202 2 0.790262 0.692194 0.00683716
203 2 0.792749 0.690202 0.0218958
204 2 0.78731 0.688808 0.0146462
205 1 0.760776 0.656187 0.0115298
206 1 0.772903 0.664341 0.017846
207 1 0.785143 0.630878 0.0313847
208 1 0.791611 0.658992 0.0139902
209 2 0.766383 0.620117 0.0381182
210 2 0.792029 0.65699 0.00923437
211 2 0.754439 0.650725 0.0146328
212 2 0.783559 0.640994 0.0301099
213 2 0.792398 0.649853 0.0165197
214 2 0.771482 0.665839 0.00468433
215 2 0.782453 0.663142 0.0156906
216 2 0.765308 0.663903 0.0143935
217 1 0.732601 0.63405 0.0185719
218 1 0.750758 0.646258 0.0186623
219 1 0.757242 0.611992 0.0262117
220 1 0.762698 0.619304 0.0151825
221 2 0.762352 0.606395 0.0481501
222 2 0.780056 0.637497 0.0131944
223 2 0.746646 0.632596 0.0247897
224 2 0.759306 0.622399 0.0255323
225 2 0.784985 0.635409 0.0200642
226 2 0.741333 0.640679 0.017945
227 2 0.755152 0.622933 0.0182737
228 2 0.749364 0.653403 0.0223194
229 1 0.703612 0.598623 0.0268354
230 1 0.722954 0.596436 0.0290622
231 1 0.730483 0.588132 0.0361718
232 1 0.739094 0.602911 0.0231959
233 2 0.712399 0.579865 0.0538223
234 2 0.735739 0.607707 0.0191509
235 2 0.705674 0.607961 0.029236
236 2 0.72561 0.587953 0.031878
237 2 0.746922 0.609457 0.0250644
238 2 0.707048 0.607177 0.0107551
239 2 0.730974 0.600186 0.0262407
240 2 0.734081 0.624166 0.0167626
241 1 0.695055 0.840367 0.0332255
242 1 0.723083 0.839567 0.0363045
243 1 0.750639 0.815024 0.0458179
244 1 0.73595 0.843756 0.0432979
245 2 0.756368 0.8126 0.0497546
246 2 0.728757 0.852104 0.0438141
247 2 0.73285 0.815962 0.0406106
248 2 0.740579 0.817534 0.0471946
249 2 0.732897 0.837989 0.0471183
250 2 0.716607 0.848601 0.0264152
251 2 0.731926 0.840171 0.0390471
252 2 0.724536 0.840022 0.0315666
253 1 0.71474 0.813344 0.0265697
254 1 0.734751 0.811664 0.0362832
255 1 0.77623 0.792619 0.0384921
256 1 0.753855 0.806249 0.0331371
257 2 0.756652 0.788993 0.0440958
258 2 0.738295 0.814905 0.0254943
259 2 0.722118 0.820828 0.0262533
260 2 0.756479 0.795985 0.0322829
261 2 0.749688 0.805146 0.0436633
262 2 0.729585 0.784003 0.0251634
263 2 0.744715 0.808094 0.035516
264 2 0.732194 0.818285 0.032652
265 1 0.737899 0.778718 0.0232462
266 1 0.748385 0.811154 0.0242332
267 1 0.773 0.763256 0.0316584
268 1 0.762195 0.786811 0.0321627
269 2 0.751826 0.760916 0.04055
270 2 0.769216 0.78637 0.0284624
271 2 0.743205 0.773952 0.0267522
272 2 0.766363 0.765511 0.0353176
273 2 0.767823 0.787278 0.0363033
274 2 0.734023 0.772718 0.0196932
275 2 0.755314 0.778569 0.031887
276 2 0.744203 0.785839 0.0209586
277 1 0.744977 0.751388 0.0326232
278 1 0.746489 0.772431 0.0312402
279 1 0.782423 0.744357 0.0325393
280 1 0.7655 0.754365 0.0238617
281 2 0.772135 0.723055 0.038155
282 2 0.762588 0.761007 0.0204026
283 2 0.736484 0.756127 0.043082
284 2 0.774547 0.749344 0.022635
285 2 0.767721 0.760758 0.027656
286 2 0.728882 0.763164 0.0134749
287 2 0.759005 0.746522 0.0253253
288 2 0.74693 0.761764 0.0319874
289 1 0.753144 0.74082 0.0283824
290 1 0.732979 0.74854 0.0402371
291 1 0.788151 0.716195 0.0285855
292 1 0.781085 0.741029 0.0233836
293 2 0.763287 0.716762 0.0315235
294 2 0.790623 0.744036 0.0215561
295 2 0.754959 0.730437 0.0281394
296 2 0.777703 0.732018 0.021407
297 2 0.780487 0.739827 0.0282264
298 2 0.728946 0.726137 0.0101006
299 2 0.727018 0.741284 0.0414959
300 2 0.754318 0.745598 0.0328497
301 1 0.753343 0.707814 0.0211846
302 1 0.75868 0.720383 0.0273811
303 1 0.780355 0.680586 0.033525
304 1 0.775645 0.721415 0.0214544
305 2 0.772279 0.70575 0.0369876
306 2 0.776606 0.716872 0.0171211
307 2 0.761797 0.701574 0.0224075
308 2 0.775571 0.691907 0.0204404
309 2 0.782874 0.716733 0.0244398
310 2 0.746847 0.699841 0.019448
311 2 0.766446 0.720863 0.023981
312 2 0.751668 0.713998 0.0250241
313 1 0.749912 0.693353 0.0157259
314 1 0.765177 0.691668 0.0213135
315 1 0.770027 0.656342 0.0260089
316 1 0.770328 0.675865 0.0255562
317 2 0.770735 0.654745 0.0355172
318 2 0.773464 0.672494 0.021084
319 2 0.758032 0.665052 0.0366616
320 2 0.774278 0.672962 0.0356042
321 2 0.777196 0.679802 0.0288638
322 2 0.776164 0.69781 0.0105054
323 2 0.763685 0.68398 0.0246035
324 2 0.759273 0.68966 0.0173849
325 1 0.743501 0.656799 0.0261594
326 1 0.749891 0.658663 0.0351161
327 1 0.76034 0.629082 0.0382809
328 1 0.764893 0.646497 0.0336979
329 2 0.743992 0.637444 0.0474025
330 2 0.770407 0.656405 0.0211294
331 2 0.738267 0.647481 0.0270928
332 2 0.765967 0.637038 0.0359458
333 2 0.765581 0.648742 0.0288797
334 2 0.743297 0.671718 0.00828453
335 2 0.754835 0.649079 0.0350702
336 2 0.747559 0.659824 0.0304338
337 1 0.704932 0.642788 0.0273406
338 1 0.737731 0.636755 0.0268426
339 1 0.735641 0.607984 0.0369697
340 1 0.740773 0.626431 0.0348564
341 2 0.727053 0.610142 0.0396855
342 2 0.757767 0.63872 0.0202885
343 2 0.703734 0.634207 0.0370241
344 2 0.737693 0.616221 0.0340867
345 2 0.751202 0.627483 0.0358191
346 2 0.730912 0.633892 0.0233866
347 2 0.737557 0.632437 0.0311807
348 2 0.709899 0.652196 0.0279791
349 1 0.696235 0.604041 0.0398092
350 1 0.712079 0.631467 0.0342086
351 1 0.708061 0.585673 0.05027
352 1 0.711047 0.61039 0.033316
353 2 0.713099 0.586729 0.0606842
354 2 0.719599 0.604116 0.0322859
355 2 0.700577 0.611103 0.0509056
356 2 0.709079 0.596433 0.0503281
357 2 0.735316 0.59776 0.035561
358 2 0.680654 0.607359 0.0206633
359 2 0.720382 0.635776 0.0365938
360 2 0.704564 0.607365 0.0370097
361 1 0.690588 0.8579 0.0375402
362 1 0.699132 0.854573 0.0460243
363 1 0.723245 0.834186 0.0481686
364 1 0.717983 0.850331 0.0432106
365 2 0.712297 0.821708 0.0550093
366 2 0.7173 0.847735 0.0384708
367 2 0.703211 0.834483 0.0347659
368 2 0.700306 0.828114 0.0496865
369 2 0.717186 0.840596 0.0454105
370 2 0.695702 0.861745 0.0335303
371 2 0.709875 0.855868 0.0451792
372 2 0.694406 0.858906 0.0420793
373 1 0.702643 0.806961 0.0371923
374 1 0.707783 0.827537 0.0378704
375 1 0.747239 0.794481 0.0434441
376 1 0.730677 0.816406 0.0453503
377 2 0.738624 0.793791 0.0465123
378 2 0.728167 0.803102 0.0358807
379 2 0.710898 0.800925 0.0359418
380 2 0.727388 0.806838 0.0467486
381 2 0.723879 0.824105 0.0466676
382 2 0.695433 0.808294 0.0335822
383 2 0.717885 0.830633 0.0375673
384 2 0.70661 0.817016 0.0373879
385 1 0.719889 0.783585 0.0273332
386 1 0.719827 0.79944 0.0333893
387 1 0.74393 0.763808 0.0436259
388 1 0.736574 0.780343 0.0387564
389 2 0.699239 0.770302 0.0433938
390 2 0.75211 0.810596 0.0288131
391 2 0.712952 0.789171 0.0243313
392 2 0.740074 0.773146 0.042071
393 2 0.742334 0.789349 0.0397348
394 2 0.718776 0.806571 0.029724
395 2 0.739578 0.776413 0.034516
396 2 0.720689 0.790121 0.0312454
397 1 0.712017 0.66256 0.0290353
398 1 0.71571 0.6652 0.0385838
399 1 0.734868 0.643453 0.0474095
400 1 0.734372 0.659851 0.0417392
401 2 0.71863 0.649212 0.0574291
402 2 0.741535 0.658783 0.0381311
403 2 0.706729 0.663495 0.0411391
404 2 0.736516 0.653291 0.0454377
405 2 0.734168 0.670401 0.04297
406 2 0.720378 0.665879 0.0263898
407 2 0.724198 0.659022 0.0399733
408 2 0.713737 0.663967 0.0338244
409 1 0.695896 0.639124 0.0394793
410 1 0.696397 0.660204 0.0408492
411 1 0.722448 0.614702 0.0435575
412 1 0.725924 0.633004 0.0405019
413 2 0.706802 0.605845 0.0573445
414 2 0.71061 0.635492 0.0297952
415 2 0.68902 0.611217 0.041427
416 2 0.720502 0.624722 0.0423476
417 2 0.73532 0.629348 0.0388096
418 2 0.697411 0.649679 0.0399012
419 2 0.728126 0.639533 0.0440775
420 2 0.692601 0.666135 0.0371743
421 1 0.660838 0.590026 0.0406862
422 1 0.682191 0.61418 0.0449277
423 1 0.69083 0.588966 0.0548401
424 1 0.705979 0.604973 0.0477722
425 2 0.664802 0.585724 0.0592872
426 2 0.700198 0.600958 0.0440813
427 2 0.660337 0.583467 0.0445897
428 2 0.697348 0.584891 0.0513202
429 2 0.713983 0.610012 0.0455502
430 2 0.69656 0.593645 0.0297557
431 2 0.686867 0.621555 0.0476567
432 2 0.673779 0.618986 0.0428942
433 1 0.666264 0.849556 0.0464695
434 1 0.688307 0.85067 0.0540313
435 1 0.701966 0.824525 0.0541573
436 1 0.687696 0.844444 0.0624841
437 2 0.697421 0.818917 0.0643913
438 2 0.694169 0.855565 0.05046
439 2 0.673584 0.842109 0.0476607
440 2 0.692498 0.835322 0.0638227
441 2 0.687087 0.849828 0.0666556
442 2 0.648543 0.855028 0.0408586
443 2 0.691388 0.849683 0.0586284
444 2 0.67794 0.853601 0.0545399
445 1 0.681243 0.823742 0.0426656
446 1 0.68031 0.835143 0.0495265
447 1 0.7282 0.796375 0.0474741
448 1 0.697459 0.833342 0.0457239
449 2 0.71377 0.784523 0.0558939
450 2 0.69804 0.843844 0.0456139
451 2 0.687765 0.815604 0.0434926
452 2 0.702231 0.829466 0.0419117
453 2 0.70787 0.805087 0.0638142
454 2 0.680857 0.827713 0.0383064
455 2 0.686325 0.831445 0.0455885
456 2 0.67599 0.826295 0.0510724
457 1 0.697551 0.779972 0.0411444
458 1 0.692025 0.806051 0.0449467
459 1 0.703968 0.774791 0.0473032
460 1 0.717169 0.783204 0.0420551
461 2 0.704242 0.772647 0.0519448
462 2 0.725948 0.780846 0.0395087
463 2 0.69808 0.783614 0.0458804
464 2 0.714069 0.776678 0.0457841
465 2 0.721112 0.791662 0.0445094
466 2 0.688779 0.781346 0.0385245
467 2 0.707479 0.783117 0.0397842
468 2 0.697918 0.803468 0.0411725
469 1 0.686431 0.670342 0.0337729
470 1 0.677833 0.661063 0.0456146
471 1 0.709249 0.653899 0.0588805
472 1 0.728184 0.678841 0.0421624
473 2 0.687794 0.638121 0.0584828
474 2 0.720032 0.674939 0.0397502
475 2 0.672913 0.651261 0.0451671
476 2 0.708152 0.663782 0.0578625
477 2 0.730356 0.688072 0.0432753
478 2 0.687106 0.663622 0.0299675
479 2 0.68818 0.660692 0.044079
480 2 0.689439 0.679714 0.031694
481 1 0.667534 0.624779 0.0400222
482 1 0.670717 0.640837 0.0460474
483 1 0.697162 0.608189 0.0553268
484 1 0.689729 0.631869 0.0479527
485 2 0.679793 0.620292 0.0640478
486 2 0.694641 0.634724 0.0438268
487 2 0.657285 0.624643 0.0528729
488 2 0.677122 0.606131 0.0472176
489 2 0.695204 0.634233 0.0519958
490 2 0.687442 0.63817 0.0364687
491 2 0.680243 0.636961 0.0475618
492 2 0.667647 0.634453 0.0422555
493 1 0.656111 0.587438 0.0487713
494 1 0.652586 0.617844 0.0498189
495 1 0.657072 0.579295 0.0572413
496 1 0.666872 0.603145 0.0473484
497 2 0.647642 0.578311 0.0596456
498 2 0.664328 0.599004 0.0429688
499 2 0.654448 0.581735 0.0526946
500 2 0.663527 0.594784 0.0500089
501 2 0.690855 0.599685 0.0542635
502 2 0.678308 0.594056 0.031251
503 2 0.660087 0.610946 0.0485153
504 2 0.649138 0.624408 0.0463241
505 1 0.667076 0.852951 0.0548555
506 1 0.660693 0.858598 0.0634888
507 1 0.689487 0.825578 0.0654026
508 1 0.668946 0.861609 0.0713948
509 2 0.687907 0.841852 0.0739303
510 2 0.667935 0.862938 0.0666445
511 2 0.662816 0.842733 0.0548246
512 2 0.67862 0.858163 0.0725397
513 2 0.662394 0.86701 0.0743071
514 2 0.664779 0.855994 0.050287
515 2 0.661507 0.853288 0.0722352
516 2 0.663607 0.85791 0.0588252
517 1 0.667336 0.819838 0.0491368
518 1 0.658666 0.832561 0.0553132
519 1 0.704028 0.796837 0.0612588
520 1 0.671725 0.831065 0.0623315
521 2 0.693392 0.806278 0.0755277
522 2 0.686858 0.84043 0.0523652
523 2 0.671216 0.81003 0.0504931
524 2 0.679774 0.824237 0.0634446
525 2 0.677846 0.840087 0.0613768
526 2 0.671631 0.822092 0.0445773
527 2 0.665285 0.828619 0.0586953
528 2 0.65996 0.826055 0.0514333
529 1 0.661567 0.789139 0.0489283
530 1 0.677505 0.801153 0.0505594
531 1 0.709974 0.774204 0.0559381
532 1 0.695661 0.805805 0.0539488
533 2 0.68751 0.7868 0.067832
534 2 0.697587 0.806668 0.0491129
535 2 0.655835 0.789178 0.0530659
536 2 0.702841 0.800317 0.0565963
537 2 0.695819 0.816329 0.055208
538 2 0.662883 0.782768 0.045092
539 2 0.685464 0.802135 0.05381
540 2 0.683197 0.801091 0.0464388
541 1 0.63908 0.675642 0.0558466
542 1 0.652723 0.661512 0.0550009
543 1 0.677972 0.640885 0.0573081
544 1 0.674154 0.659692 0.0545666
545 2 0.667894 0.658105 0.0660505
546 2 0.677291 0.663691 0.0503393
547 2 0.631643 0.652135 0.0526195
548 2 0.677296 0.649292 0.0542797
549 2 0.677228 0.661507 0.0592416
550 2 0.672272 0.667815 0.0427539
551 2 0.663358 0.661008 0.0547136
552 2 0.647616 0.670785 0.0536623
553 1 0.644042 0.63339 0.0453388
554 1 0.640204 0.645703 0.0529763
555 1 0.673458 0.626658 0.0667323
556 1 0.662104 0.633664 0.0539378
557 2 0.645839 0.604186 0.0664753
558 2 0.663611 0.639033 0.0497152
559 2 0.643751 0.614116 0.0519748
560 2 0.665 0.631293 0.0646328
561 2 0.672143 0.632954 0.0556204
562 2 0.648234 0.639197 0.0418035
563 2 0.648188 0.652826 0.0531184
564 2 0.64238 0.638678 0.049486
565 1 0.618911 0.609574 0.0503667
566 1 0.636029 0.614015 0.0553388
567 1 0.640544 0.585281 0.0617843
568 1 0.648718 0.604286 0.0614454
569 2 0.617739 0.58941 0.0740677
570 2 0.647215 0.592513 0.0469716
571 2 0.64006 0.582842 0.0665182
572 2 0.646448 0.594007 0.060728
573 2 0.657936 0.608432 0.0613941
574 2 0.633132 0.597194 0.0416844
575 2 0.64073 0.609327 0.0591474
576 2 0.627271 0.609619 0.0533687
577 1 0.632093 0.85342 0.0583019
578 1 0.641805 0.85926 0.0668015
579 1 0.682743 0.848758 0.0710796
580 1 0.654184 0.859699 0.0746481
581 2 0.674983 0.820367 0.0829224
582 2 0.651327 0.862779 0.0646326
583 2 0.6343 0.843273 0.0568341
584 2 0.660359 0.848401 0.065117
585 2 0.625451 0.841546 0.0685861
586 2 0.633645 0.85855 0.0541292
587 2 0.632636 0.865254 0.0679497
588 2 0.637856 0.856167 0.0620261
589 1 0.62544 0.818564 0.0545121
590 1 0.638077 0.833801 0.0583165
591 1 0.684028 0.803839 0.0734395
592 1 0.663146 0.84203 0.068912
593 2 0.661511 0.819804 0.0725614
594 2 0.648303 0.832735 0.0567241
595 2 0.630022 0.80909 0.0556969
596 2 0.665406 0.833021 0.0660226
597 2 0.673669 0.843446 0.0701096
598 2 0.624727 0.822471 0.0499833
599 2 0.657341 0.83684 0.0722628
600 2 0.631443 0.825889 0.0568873
601 1 0.653002 0.79767 0.0558417
602 1 0.63505 0.810464 0.0671698
603 1 0.685516 0.795633 0.0652143
604 1 0.665614 0.799515 0.0634997
605 2 0.665355 0.78571 0.0735548
606 2 0.671039 0.792754 0.0505442
607 2 0.660113 0.799746 0.0593654
608 2 0.675859 0.796436 0.0632584
609 2 0.686388 0.803002 0.0687181
610 2 0.652143 0.805827 0.0526074
611 2 0.66094 0.792334 0.0664925
612 2 0.637796 0.808855 0.0626613
613 1 0.625552 0.66067 0.0531809
614 1 0.626134 0.686588 0.050466
615 1 0.658272 0.654944 0.0676501
616 1 0.644915 0.66675 0.063263
617 2 0.647932 0.654357 0.0774933
618 2 0.649337 0.661282 0.0596199
619 2 0.647813 0.631444 0.0641778
620 2 0.65161 0.663388 0.0668748
621 2 0.642432 0.675686 0.0605421
622 2 0.623357 0.662782 0.0485261
623 2 0.633713 0.683852 0.0536746
624 2 0.631342 0.668136 0.0553721
625 1 0.629546 0.633195 0.058546
626 1 0.638439 0.629718 0.0662706
627 1 0.636348 0.609133 0.0679335
628 1 0.656644 0.636795 0.0627551
629 2 0.627112 0.620634 0.0763885
630 2 0.657168 0.637646 0.0578908
631 2 0.610488 0.619562 0.0594148
632 2 0.636487 0.619251 0.0666322
633 2 0.655586 0.646421 0.0649328
634 2 0.632757 0.623736 0.0567585
635 2 0.630781 0.633223 0.0633214
636 2 0.618882 0.634287 0.057863
637 1 0.600563 0.601245 0.052709
638 1 0.607963 0.609258 0.0604701
639 1 0.610529 0.592777 0.0707429
640 1 0.622829 0.596038 0.0633486
641 2 0.608811 0.603263 0.071684
642 2 0.616464 0.602418 0.0606417
643 2 0.596737 0.591647 0.0509986
644 2 0.615892 0.591656 0.0665197
645 2 0.630177 0.589274 0.0612758
646 2 0.610699 0.603302 0.0516079
647 2 0.628886 0.602826 0.0661047
648 2 0.600722 0.605113 0.0572389
649 1 0.603414 0.848695 0.0691424
650 1 0.61124 0.87332 0.0731466
651 1 0.664639 0.822478 0.0827039
652 1 0.626649 0.8696 0.0712595
653 2 0.647569 0.8551 0.0871216
654 2 0.619248 0.877593 0.0704481
655 2 0.610465 0.844787 0.0723302
656 2 0.646439 0.861621 0.0716323
657 2 0.631778 0.871895 0.0753777
658 2 0.617561 0.864316 0.0728245
659 2 0.622354 0.867136 0.0816018
660 2 0.596077 0.855403 0.0709091
661 1 0.605303 0.833535 0.0632042
662 1 0.619679 0.839429 0.0726126
663 1 0.657573 0.828202 0.0749678
664 1 0.635807 0.839481 0.0674636
665 2 0.642538 0.815694 0.0840271
666 2 0.637437 0.835035 0.0631259
667 2 0.613182 0.827574 0.0650635
668 2 0.641133 0.848393 0.0681443
669 2 0.663024 0.829172 0.0790296
670 2 0.599132 0.825798 0.0614388
671 2 0.617436 0.82879 0.0721043
672 2 0.609591 0.841146 0.0604198
673 1 0.624773 0.793817 0.0659507
674 1 0.616795 0.821387 0.0686084
675 1 0.658025 0.791674 0.071144
676 1 0.639563 0.822909 0.0732085
677 2 0.634706 0.790298 0.075982
678 2 0.641885 0.814784 0.0701413
679 2 0.614963 0.797328 0.0667192
680 2 0.632679 0.800076 0.0688289
681 2 0.647657 0.824935 0.0760377
682 2 0.627766 0.796347 0.0615479
683 2 0.637809 0.831485 0.0705652
684 2 0.626024 0.816215 0.0674412
685 1 0.597861 0.659453 0.0631779
686 1 0.610967 0.659925 0.0699828
687 1 0.637652 0.656763 0.0772914
688 1 0.630628 0.660659 0.069149
689 2 0.596492 0.665891 0.0886539
690 2 0.635607 0.664009 0.0652491
691 2 0.598071 0.648961 0.0646093
692 2 0.635506 0.662612 0.0733886
693 2 0.620631 0.664088 0.0696079
694 2 0.600504 0.659749 0.0584852
695 2 0.630291 0.649853 0.0692646
696 2 0.604529 0.663647 0.0665006
697 1 0.609852 0.63035 0.0598438
698 1 0.604523 0.642021 0.0672464
699 1 0.618054 0.625547 0.0747935
700 1 0.630001 0.641527 0.0723572
701 2 0.600322 0.620991 0.0846534
702 2 0.637366 0.634785 0.0705083
703 2 0.575188 0.605892 0.0720817
704 2 0.621612 0.635133 0.0732178
705 2 0.632487 0.647331 0.0763675
706 2 0.636618 0.640112 0.0567631
707 2 0.611439 0.649479 0.0688051
708 2 0.608714 0.634598 0.0643495
709 1 0.590205 0.592611 0.0717952
710 1 0.585486 0.612201 0.0717085
711 1 0.593812 0.590696 0.0812431
712 1 0.605345 0.612784 0.0698871
713 2 0.590803 0.591969 0.0766498
714 2 0.605188 0.610641 0.0650946
715 2 0.60028 0.588862 0.070606
716 2 0.596139 0.617236 0.0711426
717 2 0.613234 0.619707 0.0713625
718 2 0.594568 0.604797 0.0488488
719 2 0.580719 0.619423 0.0685876
720 2 0.590401 0.602744 0.0703048
721 1 0.592664 0.865103 0.0726109
722 1 0.6167 0.876566 0.0819086
723 1 0.644 0.857074 0.0826644
724 1 0.631675 0.871955 0.0801704
725 2 0.621761 0.846118 0.0931921
726 2 0.611656 0.877209 0.0776599
727 2 0.594285 0.849827 0.0802894
728 2 0.651091 0.856565 0.078978
729 2 0.639771 0.86693 0.0821242
730 2 0.583091 0.867389 0.0707094
731 2 0.611121 0.87656 0.0859182
732 2 0.601255 0.871472 0.0718047
733 1 0.588097 0.825592 0.0740884
734 1 0.594867 0.83934 0.0800553
735 1 0.634674 0.823037 0.0843667
736 1 0.630147 0.841138 0.0809568
737 2 0.620067 0.819263 0.094132
738 2 0.62596 0.840942 0.0764645
739 2 0.597195 0.819794 0.074866
740 2 0.635959 0.832347 0.0821366
741 2 0.636171 0.849751 0.0817696
742 2 0.584408 0.825888 0.0694906
743 2 0.621437 0.839124 0.0836694
744 2 0.590929 0.835176 0.0759894
745 1 0.590542 0.80056 0.0727073
746 1 0.602854 0.81262 0.0774212
747 1 0.634708 0.79704 0.0797529
748 1 0.62364 0.81408 0.0781267
749 2 0.615814 0.796443 0.0879514
750 2 0.613529 0.813016 0.076781
751 2 0.596992 0.80367 0.0763714
752 2 0.630895 0.81918 0.0754258
753 2 0.625653 0.818527 0.082413
754 2 0.597905 0.800075 0.0692442
755 2 0.627551 0.804212 0.0782319
756 2 0.610081 0.81301 0.0689278
757 1 0.579169 0.657488 0.073123
758 1 0.586914 0.670715 0.0794576
759 1 0.58723 0.661498 0.0872929
760 1 0.604993 0.65938 0.0792302
761 2 0.580261 0.660277 0.0910438
762 2 0.607533 0.660172 0.0745731
763 2 0.587675 0.651009 0.0731993
764 2 0.582138 0.667946 0.084
765 2 0.613572 0.659557 0.0821638
766 2 0.576426 0.659397 0.0685602
767 2 0.596755 0.666627 0.0798019
768 2 0.582018 0.666028 0.0758188
769 1 0.580565 0.629628 0.067408
770 1 0.590265 0.640493 0.0737884
771 1 0.591319 0.62516 0.0864048
772 1 0.592896 0.643896 0.0826804
773 2 0.572006 0.622998 0.0931124
774 2 0.600949 0.649892 0.0808016
775 2 0.553082 0.615112 0.0746003
776 2 0.593162 0.635873 0.0858512
777 2 0.587797 0.652139 0.0849558
778 2 0.587495 0.631758 0.0638253
779 2 0.589579 0.639426 0.0785618
780 2 0.599252 0.639046 0.0712403
781 1 0.560294 0.59488 0.0788407
782 1 0.559492 0.615572 0.0784654
783 1 0.575767 0.595111 0.0845123
784 1 0.579245 0.614655 0.080445
785 2 0.584884 0.589711 0.083829
786 2 0.585518 0.61371 0.0766415
787 2 0.567671 0.591202 0.0818791
788 2 0.577827 0.605137 0.0827774
789 2 0.583253 0.621599 0.083678
790 2 0.564065 0.593789 0.0743497
791 2 0.569836 0.618301 0.0787172
792 2 0.559755 0.605453 0.0798968
793 1 0.563151 0.844433 0.0825202
794 1 0.593438 0.86002 0.0815451
795 1 0.612928 0.850785 0.0914681
796 1 0.606355 0.868 0.0878118
797 2 0.606182 0.851294 0.095299
798 2 0.626597 0.881014 0.0816144
799 2 0.573428 0.842436 0.0835022
800 2 0.612889 0.860933 0.0899332
801 2 0.597041 0.868355 0.0902863
802 2 0.562323 0.849749 0.0783238
803 2 0.602463 0.863439 0.0836738
804 2 0.591509 0.864992 0.0774175
805 1 0.5766 0.81718 0.0813955
806 1 0.579256 0.834941 0.0857669
807 1 0.610275 0.815998 0.0946638
808 1 0.611409 0.836862 0.0849323
809 2 0.596525 0.828477 0.101201
810 2 0.604975 0.836473 0.0810483
811 2 0.582168 0.809124 0.0836299
812 2 0.609458 0.827076 0.0868563
813 2 0.609035 0.844918 0.0878618
814 2 0.550319 0.824868 0.0763367
815 2 0.589097 0.835626 0.0838545
816 2 0.575868 0.824993 0.0846999
817 1 0.560275 0.80588 0.0783135
818 1 0.588207 0.807741 0.0875855
819 1 0.606512 0.799446 0.089857
820 1 0.603769 0.818246 0.0867242
821 2 0.596322 0.79786 0.100535
822 2 0.603251 0.814426 0.0822227
823 2 0.555346 0.803415 0.0825136
824 2 0.596725 0.800628 0.0878627
825 2 0.60826 0.810864 0.0901114
826 2 0.566976 0.800011 0.075453
827 2 0.593527 0.817226 0.0877852
828 2 0.567297 0.813453 0.0798231
829 1 0.548801 0.661539 0.0798132
830 1 0.558688 0.672993 0.0865921
831 1 0.569644 0.659688 0.0921989
832 1 0.577794 0.679004 0.0848005
833 2 0.557835 0.659238 0.0996587
834 2 0.583226 0.680432 0.0806296
835 2 0.543194 0.655105 0.0828049
836 2 0.563861 0.666935 0.0900149
837 2 0.581566 0.681169 0.0888952
838 2 0.554473 0.654787 0.0769371
839 2 0.567112 0.678574 0.0848036
840 2 0.555274 0.666804 0.0829283
841 1 0.55697 0.633695 0.0820929
842 1 0.542866 0.64602 0.0853691
843 1 0.561414 0.623881 0.0935103
844 1 0.559386 0.642054 0.0902003
845 2 0.544982 0.630477 0.10067
846 2 0.561945 0.636568 0.0862028
847 2 0.561612 0.63931 0.0786085
848 2 0.559505 0.634734 0.0936059
849 2 0.565929 0.650185 0.0910938
850 2 0.555428 0.623493 0.0811556
851 2 0.549799 0.646391 0.0891289
852 2 0.547461 0.638513 0.0826869
853 1 0.541053 0.59715 0.0814638
854 1 0.53506 0.61751 0.0818345
855 1 0.540046 0.597666 0.0910399
856 1 0.543333 0.618894 0.0901876
857 2 0.530449 0.594992 0.0929842
858 2 0.538481 0.621474 0.086064
859 2 0.540317 0.595066 0.0862893
860 2 0.541011 0.608567 0.090994
861 2 0.553991 0.620495 0.0903318
862 2 0.550026 0.592626 0.0797578
863 2 0.53942 0.625136 0.0937576
864 2 0.54065 0.608194 0.0814229
865 1 0.555823 0.850897 0.0911361
866 1 0.571343 0.860871 0.0949577
867 1 0.594779 0.846172 0.0954442
868 1 0.588066 0.862352 0.0900504
869 2 0.559886 0.861132 0.104458
870 2 0.58665 0.861001 0.0852809
871 2 0.55757 0.842177 0.0940651
872 2 0.590806 0.852833 0.0920889
873 2 0.579034 0.865111 0.0922124
874 2 0.558438 0.848486 0.0865436
875 2 0.574121 0.850367 0.0954958
876 2 0.561944 0.859089 0.0926883
877 1 0.535243 0.840524 0.083783
878 1 0.558807 0.833788 0.0971571
879 1 0.593457 0.823034 0.10504
880 1 0.57658 0.839979 0.0950675
881 2 0.592417 0.823573 0.115688
882 2 0.577663 0.837098 0.0904145
883 2 0.555769 0.82468 0.0949906
884 2 0.585126 0.821639 0.0959263
885 2 0.586457 0.83864 0.0967359