ITEM: TIMESTEP
190068
ITEM: NUMBER OF ATOMS
81498
ITEM: BOX BOUNDS pp pp pp
-9.2952426071017840e+00 1.1093168460710199e+02
-3.4712874150942703e+01 8.5525707151507575e+01
5.5512927810642054e-01 3.3307813072189020e+02
ITEM: ATOMS id type xs ys zs
1 1 0.799797 0.650388 0.0149201
2 1 0.778693 0.655666 0.0195854
3 1 0.845575 0.59872 0.0290155
4 1 0.806273 0.625843 0.029559
5 2 0.818137 0.594289 0.0321053
6 3 0.817995 0.631476 0.0304639
7 2 0.828767 0.629122 0.0254931
8 2 0.82828 0.612963 0.0201965
9 2 0.807953 0.61245 0.0297632
10 2 0.811319 0.656225 0.013183
11 2 0.774546 0.632452 0.0264883
12 2 0.789984 0.658095 0.0169436
13 1 0.85591 0.616587 0.0194455
14 1 0.832526 0.625609 0.0212203
15 1 0.876344 0.57068 0.0325366
16 1 0.865249 0.605372 0.0245697
17 2 0.867859 0.57453 0.0290452
18 2 0.866604 0.617537 0.0224875
19 2 0.854783 0.604173 0.021358
20 2 0.875483 0.597385 0.0234344
21 2 0.849505 0.586136 0.028029
22 2 0.858452 0.615121 0.014826
23 2 0.857793 0.604727 0.0285715
24 2 0.845876 0.624451 0.0205266
25 1 0.871286 0.576074 0.00931562
26 1 0.879105 0.589965 0.0194997
27 1 0.901626 0.541607 0.0317426
28 1 0.895283 0.559143 0.0285014
29 2 0.890914 0.546105 0.0291419
30 2 0.894345 0.561497 0.0238156
31 2 0.864548 0.574518 0.00529208
32 2 0.873619 0.55767 0.0334124
33 2 0.905991 0.554318 0.0309662
34 2 0.877344 0.601952 0.00239158
35 2 0.888725 0.568896 0.0307848
36 2 0.875935 0.588781 0.00986497
37 1 0.889365 0.558412 0.0109118
38 1 0.886155 0.564013 0.0200551
39 1 0.913651 0.504708 0.0349163
40 1 0.912734 0.520498 0.0276243
41 2 0.885395 0.505435 0.0331514
42 2 0.92054 0.518208 0.02359
43 2 0.881428 0.547934 0.00981039
44 2 0.916982 0.512679 0.0312587
45 2 0.908841 0.532168 0.0295195
46 2 0.900895 0.55643 0.00856425
47 2 0.901637 0.514122 0.0259595
48 2 0.883543 0.577319 0.0201697
49 1 0.90263 0.504483 0.0143621
50 1 0.899955 0.503727 0.0231179
51 1 0.919067 0.48555 0.0337628
52 1 0.921977 0.509272 0.0199609
53 2 0.896144 0.466551 0.033452
54 2 0.92686 0.511092 0.0155127
55 2 0.905511 0.491451 0.0143178
56 2 0.923369 0.496266 0.0363729
57 2 0.907687 0.493098 0.0334096
58 2 0.910369 0.511784 0.0115313
59 2 0.907059 0.493567 0.0247354
60 2 0.89064 0.560233 0.0157166
61 1 0.907736 0.478639 0.012737
62 1 0.913664 0.465175 0.0204017
63 1 0.917987 0.439585 0.03211
64 1 0.919332 0.487735 0.0247815
65 2 0.87823 0.435992 0.0369935
66 2 0.925012 0.49743 0.0219677
67 2 0.913637 0.470612 0.0159648
68 2 0.91462 0.452092 0.033417
69 2 0.923872 0.486403 0.0292759
70 2 0.915456 0.480575 0.00888328
71 2 0.917591 0.475559 0.0230514
72 2 0.900859 0.460866 0.0208824
73 1 0.908842 0.431416 0.016006
74 1 0.893332 0.437219 0.0262329
75 1 0.897841 0.411679 0.0279263
76 1 0.918694 0.441562 0.0233288
77 2 0.870137 0.399095 0.0326846
78 2 0.92028 0.454037 0.0216306
79 2 0.918573 0.433434 0.0194079
80 2 0.908761 0.413373 0.0308235
81 2 0.924025 0.43978 0.0277449
82 2 0.908628 0.45862 0.991934
83 2 0.906153 0.440184 0.0252224
84 2 0.888375 0.442909 0.0221756
85 1 0.875627 0.429409 0.0102014
86 1 0.870122 0.426913 0.0191002
87 1 0.879753 0.376209 0.0257467
88 1 0.892128 0.412398 0.0192362
89 2 0.848153 0.383136 0.0277733
90 2 0.900908 0.421842 0.0178294
91 2 0.865188 0.397915 0.0178297
92 2 0.884566 0.383579 0.0293965
93 2 0.89736 0.407119 0.0233172
94 2 0.888389 0.431987 0.0089426
95 2 0.880626 0.419046 0.0202125
96 2 0.873363 0.432309 0.0148141
97 1 0.84754 0.360729 0.0124606
98 1 0.868765 0.38524 0.0182973
99 1 0.839762 0.35733 0.0322378
100 1 0.888873 0.357113 0.020178
101 2 0.803859 0.350372 0.0313731
102 2 0.889567 0.405282 0.0151795
103 2 0.859958 0.359387 0.0143501
104 2 0.88561 0.365576 0.0236278
105 2 0.877428 0.384205 0.02194
106 2 0.872489 0.37709 0.0147183
107 2 0.898197 0.349245 0.0205592
108 2 0.855463 0.397541 0.0100946
109 1 0.825174 0.34859 0.0126222
110 1 0.813044 0.367306 0.0174803
111 1 0.817128 0.326113 0.028875
112 1 0.831485 0.357822 0.0236805
113 2 0.787594 0.311951 0.0311394
114 2 0.841898 0.364211 0.0218123
115 2 0.776665 0.325827 0.0162397
116 2 0.829302 0.344616 0.0230174
117 2 0.831314 0.358623 0.0285177
118 2 0.827455 0.338298 0.00930594
119 2 0.838307 0.351818 0.0136094
120 2 0.819274 0.360896 0.0137963
121 1 0.751112 0.6176 0.0208094
122 1 0.741991 0.632094 0.0277228
123 1 0.809956 0.599473 0.0286757
124 1 0.775088 0.645514 0.0276033
125 2 0.78125 0.610557 0.0264343
126 2 0.780911 0.645249 0.0319946
127 2 0.782089 0.651309 0.0240134
128 2 0.777687 0.608698 0.015361
129 2 0.763773 0.61803 0.0224921
130 2 0.773713 0.645712 0.016846
131 2 0.767077 0.662614 0.0207622
132 2 0.744952 0.627109 0.0234033
133 1 0.806247 0.614176 0.013863
134 1 0.798559 0.628682 0.020532
135 1 0.855781 0.574908 0.0268567
136 1 0.827331 0.600688 0.0220007
137 2 0.80884 0.569247 0.0321621
138 2 0.845575 0.579193 0.0162734
139 2 0.804681 0.618389 0.0183875
140 2 0.836104 0.600896 0.0256942
141 2 0.815831 0.598401 0.0243735
142 2 0.81686 0.620354 0.0120664
143 2 0.802152 0.629266 0.025109
144 2 0.800775 0.639872 0.017924
145 1 0.82573 0.581578 0.00679105
146 1 0.833028 0.5824 0.0152487
147 1 0.868633 0.545579 0.0344689
148 1 0.858346 0.57753 0.0173209
149 2 0.840292 0.544625 0.0288351
150 2 0.866812 0.587799 0.0177164
151 2 0.822979 0.568374 0.00628527
152 2 0.864293 0.572035 0.0133679
153 2 0.857617 0.573422 0.0220405
154 2 0.832759 0.585627 0.0105528
155 2 0.824683 0.571688 0.0152683
156 2 0.829244 0.59155 0.018516
157 1 0.848493 0.536481 0.00944919
158 1 0.841423 0.544684 0.0179489
159 1 0.874209 0.505855 0.0305502
160 1 0.86541 0.547827 0.0220908
161 2 0.842746 0.501775 0.0361864
162 2 0.874956 0.556429 0.0207936
163 2 0.85386 0.547172 0.0195822
164 2 0.86871 0.535406 0.0312504
165 2 0.860557 0.550557 0.0265134
166 2 0.86176 0.537903 0.00975641
167 2 0.870245 0.53549 0.0231201
168 2 0.831957 0.554103 0.0183956
169 1 0.863622 0.501659 0.0143116
170 1 0.8676 0.528378 0.0271172
171 1 0.882945 0.467994 0.0324526
172 1 0.876071 0.494732 0.0221165
173 2 0.852299 0.471629 0.0345998
174 2 0.888304 0.499966 0.0215471
175 2 0.866801 0.490208 0.0121146
176 2 0.879333 0.469175 0.0277921
177 2 0.873897 0.497005 0.0268845
178 2 0.870291 0.510811 0.0118146
179 2 0.874459 0.517321 0.0280542
180 2 0.867667 0.500406 0.0189357
181 1 0.862936 0.477519 0.0114933
182 1 0.849879 0.488519 0.0259096
183 1 0.877388 0.443935 0.0330983
184 1 0.870519 0.471811 0.0242521
185 2 0.84374 0.433506 0.0309646
186 2 0.87589 0.481421 0.0214102
187 2 0.859986 0.479297 0.0259219
188 2 0.866098 0.437458 0.0216298
189 2 0.88723 0.442937 0.0299149
190 2 0.885979 0.45655 0.015538
191 2 0.850626 0.501691 0.0267502
192 2 0.845887 0.487984 0.0213172
193 1 0.845979 0.447256 0.0127769
194 1 0.83914 0.458146 0.0238015
195 1 0.864998 0.409354 0.0350211
196 1 0.859741 0.448913 0.0208851
197 2 0.837608 0.4096 0.0343357
198 2 0.866166 0.460302 0.0222955
199 2 0.86661 0.434916 0.00734526
200 2 0.858966 0.420342 0.0333612
201 2 0.892974 0.424074 0.0270888
202 2 0.854932 0.449165 0.0163097
203 2 0.84809 0.448652 0.0232727
204 2 0.842362 0.468015 0.0208164
205 1 0.82521 0.3891 0.00617945
206 1 0.843403 0.402454 0.0111936
207 1 0.841798 0.392608 0.0251258
208 1 0.854934 0.406066 0.0190374
209 2 0.817943 0.376887 0.0320298
210 2 0.859759 0.418397 0.0189608
211 2 0.811935 0.380657 0.0180761
212 2 0.832918 0.399268 0.0277565
213 2 0.850571 0.401628 0.0233703
214 2 0.826797 0.395233 0.00189294
215 2 0.844783 0.404171 0.0159818
216 2 0.841924 0.414553 0.00927796
217 1 0.796149 0.360228 0.00672546
218 1 0.806037 0.390357 0.0207254
219 1 0.800246 0.353596 0.0267935
220 1 0.844508 0.375326 0.0192508
221 2 0.784107 0.33185 0.0310053
222 2 0.85712 0.379573 0.0196878
223 2 0.79488 0.354983 0.0110976
224 2 0.821397 0.363045 0.02114
225 2 0.837542 0.385072 0.021406
226 2 0.82702 0.355195 0.00694161
227 2 0.84331 0.372131 0.0146088
228 2 0.808237 0.365363 0.00607113
229 1 0.772869 0.323424 0.0116595
230 1 0.777026 0.350761 0.0230841
231 1 0.75872 0.309186 0.0254321
232 1 0.817217 0.340415 0.0210813
233 2 0.737679 0.280668 0.0363459
234 2 0.81896 0.341941 0.0164597
235 2 0.765253 0.316533 0.0221495
236 2 0.785421 0.32236 0.0238969
237 2 0.807321 0.345634 0.0236719
238 2 0.781852 0.316507 0.00906236
239 2 0.7873 0.352049 0.0261935
240 2 0.767848 0.334185 0.00923584
241 1 0.722819 0.642271 0.0182603
242 1 0.73172 0.655763 0.0256475
243 1 0.776232 0.621146 0.0239461
244 1 0.755822 0.657479 0.0231483
245 2 0.741449 0.599556 0.0332562
246 2 0.743719 0.662488 0.0247907
247 2 0.742426 0.607305 0.0213521
248 2 0.731711 0.595353 0.02656
249 2 0.762818 0.651049 0.0266993
250 2 0.734439 0.63964 0.0159769
251 2 0.720475 0.65806 0.0284808
252 2 0.726114 0.652122 0.0213784
253 1 0.752441 0.61264 0.0117776
254 1 0.730623 0.601279 0.0223148
255 1 0.797941 0.564628 0.0299641
256 1 0.769558 0.598123 0.0159471
257 2 0.776433 0.58983 0.0262761
258 2 0.785479 0.62519 0.0207463
259 2 0.759994 0.601661 0.0127596
260 2 0.776704 0.587113 0.015173
261 2 0.764339 0.596213 0.0203461
262 2 0.779273 0.609874 0.00785005
263 2 0.750889 0.649667 0.0196072
264 2 0.752444 0.618888 0.0160221
265 1 0.772049 0.560455 0.00860398
266 1 0.785316 0.577171 0.0142083
267 1 0.827633 0.541529 0.029876
268 1 0.797624 0.562124 0.0206853
269 2 0.775963 0.546446 0.028931
270 2 0.810018 0.56001 0.0190684
271 2 0.791439 0.550074 0.0208066
272 2 0.796446 0.551455 0.0310554
273 2 0.798088 0.56605 0.0252624
274 2 0.794742 0.582935 0.0114369
275 2 0.791205 0.571037 0.0179377
276 2 0.778222 0.567672 0.0120099
277 1 0.805088 0.522832 0.0175881
278 1 0.787667 0.537519 0.0219095
279 1 0.832709 0.509636 0.0346226
280 1 0.827419 0.526044 0.0225524
281 2 0.821099 0.504207 0.0331196
282 2 0.835341 0.534116 0.0199661
283 2 0.802099 0.50976 0.0169427
284 2 0.82378 0.532996 0.0265042
285 2 0.791427 0.534925 0.0265153
286 2 0.842922 0.542135 0.0132889
287 2 0.816079 0.522759 0.0203352
288 2 0.794348 0.529156 0.019161
289 1 0.821212 0.49992 0.0075679
290 1 0.806325 0.499904 0.0145177
291 1 0.8412 0.471836 0.0318622
292 1 0.845511 0.514091 0.026825
293 2 0.807056 0.467137 0.0356331
294 2 0.855144 0.523273 0.0264833
295 2 0.810601 0.503613 0.0103408
296 2 0.841775 0.483382 0.0292949
297 2 0.819183 0.490618 0.0385122
298 2 0.832295 0.505876 0.00907081
299 2 0.835551 0.515892 0.0236607
300 2 0.811587 0.488641 0.0156017
301 1 0.820716 0.454817 0.0127218
302 1 0.820896 0.480436 0.0134233
303 1 0.830586 0.433101 0.0307617
304 1 0.817743 0.451529 0.0259463
305 2 0.785768 0.432645 0.0332578
306 2 0.817527 0.467788 0.0135962
307 2 0.807515 0.44431 0.0246826
308 2 0.792378 0.428174 0.0263502
309 2 0.826393 0.455934 0.0226884
310 2 0.834109 0.453357 0.0135753
311 2 0.814951 0.462304 0.0286658
312 2 0.832764 0.481508 0.0155033
313 1 0.80136 0.438432 0.0159577
314 1 0.794734 0.440377 0.024433
315 1 0.827887 0.407955 0.0308804
316 1 0.786808 0.42184 0.03024
317 2 0.801989 0.404535 0.0393479
318 2 0.82574 0.443029 0.0282521
319 2 0.790829 0.408868 0.0166197
320 2 0.795285 0.412832 0.0321787
321 2 0.826728 0.420796 0.0294322
322 2 0.822787 0.42444 0.0100824
323 2 0.78965 0.44776 0.0281577
324 2 0.793316 0.442023 0.0197048
325 1 0.782671 0.379339 0.0095652
326 1 0.782955 0.399417 0.0186825
327 1 0.807216 0.377956 0.0289743
328 1 0.803896 0.412407 0.0162981
329 2 0.775534 0.381894 0.0300806
330 2 0.808615 0.410931 0.0118598
331 2 0.772956 0.395538 0.0157279
332 2 0.808321 0.387042 0.0254376
333 2 0.809326 0.403016 0.0193255
334 2 0.787659 0.370427 0.00636419
335 2 0.792604 0.390939 0.0201782
336 2 0.787068 0.374095 0.0137245
337 1 0.757913 0.341313 0.00731258
338 1 0.764664 0.363841 0.0105231
339 1 0.790583 0.322509 0.0283233
340 1 0.788207 0.360436 0.0150784
341 2 0.751398 0.338119 0.0323721
342 2 0.800747 0.362698 0.0176501
343 2 0.772297 0.338216 0.0225488
344 2 0.782903 0.354204 0.019012
345 2 0.804659 0.366252 0.0267552
346 2 0.752163 0.334331 0.0035972
347 2 0.77514 0.358584 0.0126651
348 2 0.769467 0.376095 0.00923215
349 1 0.750713 0.310068 0.0101717
350 1 0.741012 0.346078 0.0237206
351 1 0.733343 0.300055 0.0246785
352 1 0.77483 0.325574 0.0210224
353 2 0.697264 0.265945 0.02358
354 2 0.76724 0.359174 0.0243086
355 2 0.726851 0.290645 0.012487
356 2 0.730943 0.298805 0.0199307
357 2 0.756777 0.318354 0.0289891
358 2 0.756832 0.302726 0.00670923
359 2 0.719978 0.310103 0.0148304
360 2 0.741769 0.351203 0.0191759
361 1 0.689176 0.667249 0.0113773
362 1 0.683465 0.669721 0.0197297
363 1 0.730706 0.593768 0.0312721
364 1 0.709385 0.652099 0.0306592
365 2 0.719526 0.599676 0.0327405
366 2 0.67731 0.679905 0.0220437
367 2 0.704995 0.623068 0.0267256
368 2 0.737481 0.644588 0.0274252
369 2 0.702364 0.657494 0.0344784
370 2 0.695505 0.655396 0.0119379
371 2 0.689802 0.65975 0.0218594
372 2 0.689183 0.673138 0.0156641
373 1 0.711039 0.593846 0.0100445
374 1 0.712113 0.621037 0.0226345
375 1 0.763849 0.589299 0.0245187
376 1 0.727335 0.582618 0.0155317
377 2 0.747966 0.560589 0.0394619
378 2 0.727495 0.591673 0.0190808
379 2 0.706397 0.602509 0.0132387
380 2 0.716239 0.584114 0.0128257
381 2 0.72929 0.569718 0.0161452
382 2 0.736095 0.587514 0.0123342
383 2 0.721108 0.610876 0.0226846
384 2 0.717926 0.632133 0.0208925
385 1 0.735088 0.566497 0.00427484
386 1 0.748416 0.559757 0.0121952
387 1 0.766843 0.545127 0.0252862
388 1 0.754488 0.565606 0.0214628
389 2 0.73525 0.531987 0.0288927
390 2 0.763252 0.556286 0.0229743
391 2 0.742541 0.568694 0.000347245
392 2 0.774273 0.537715 0.0222065
393 2 0.758667 0.577518 0.0231511
394 2 0.724358 0.574956 0.00351105
395 2 0.752429 0.565094 0.0165703
396 2 0.74219 0.565822 0.00830252
397 1 0.762022 0.401079 0.013602
398 1 0.750818 0.418212 0.0198869
399 1 0.762888 0.386025 0.0298382
400 1 0.767972 0.409071 0.0258993
401 2 0.736362 0.387736 0.0323705
402 2 0.776762 0.404536 0.0225666
403 2 0.756661 0.40931 0.0168089
404 2 0.762585 0.398141 0.0279378
405 2 0.775484 0.41605 0.0290413
406 2 0.766827 0.408176 0.00988455
407 2 0.758621 0.41651 0.0238763
408 2 0.750642 0.430107 0.0181961
409 1 0.744104 0.363253 0.0168249
410 1 0.723919 0.378836 0.0206083
411 1 0.747856 0.328176 0.0294533
412 1 0.755584 0.365561 0.0248453
413 2 0.724015 0.308195 0.0267149
414 2 0.760816 0.354578 0.00719202
415 2 0.75072 0.36896 0.0205602
416 2 0.747208 0.355777 0.026235
417 2 0.756401 0.376403 0.0275114
418 2 0.734894 0.359958 0.0122641
419 2 0.754085 0.364601 0.0135014
420 2 0.732324 0.372236 0.0171307
421 1 0.716896 0.287299 0.00962905
422 1 0.710592 0.317834 0.0169523
423 1 0.706728 0.274306 0.0223624
424 1 0.730259 0.301211 0.0151934
425 2 0.678365 0.270553 0.027359
426 2 0.742034 0.305345 0.013399
427 2 0.710839 0.275477 0.0104323
428 2 0.719382 0.270416 0.0236017
429 2 0.74579 0.334058 0.0251237
430 2 0.718428 0.291865 0.00519271
431 2 0.728553 0.344947 0.0252434
432 2 0.715484 0.330279 0.0162343
433 1 0.64808 0.677162 0.0150798
434 1 0.664665 0.674852 0.0220018
435 1 0.694586 0.620304 0.0298108
436 1 0.687997 0.649502 0.024961
437 2 0.689929 0.627897 0.0334987
438 2 0.670669 0.664917 0.019302
439 2 0.683221 0.637614 0.0231882
440 2 0.699499 0.648915 0.0274791
441 2 0.677548 0.654149 0.0275774
442 2 0.656629 0.673548 0.0115073
443 2 0.662458 0.66994 0.0263513
444 2 0.654836 0.678994 0.019232
445 1 0.683284 0.613642 0.00971579
446 1 0.67588 0.626039 0.0238537
447 1 0.738647 0.552902 0.0374183
448 1 0.69814 0.606796 0.0167248
449 2 0.703963 0.581525 0.0249569
450 2 0.703181 0.616544 0.0193903
451 2 0.688057 0.611041 0.0140388
452 2 0.707434 0.570087 0.0187517
453 2 0.695669 0.596202 0.0195351
454 2 0.692663 0.61202 0.00615329
455 2 0.683756 0.619857 0.027037
456 2 0.680066 0.626513 0.00904185
457 1 0.695957 0.5766 0.00641309
458 1 0.702772 0.564242 0.0146349
459 1 0.730309 0.558334 0.0244105
460 1 0.726363 0.556436 0.0156759
461 2 0.710842 0.538688 0.0279734
462 2 0.737627 0.552218 0.0134992
463 2 0.703462 0.568628 0.00354471
464 2 0.742858 0.562159 0.0236329
465 2 0.726317 0.552186 0.0202581
466 2 0.702154 0.588443 0.00709396
467 2 0.713907 0.556776 0.013703
468 2 0.697798 0.57089 0.0107708
469 1 0.728707 0.371996 0.0123888
470 1 0.707094 0.398403 0.0185627
471 1 0.72727 0.388981 0.0288009
472 1 0.729355 0.403719 0.0215757
473 2 0.699444 0.376293 0.0353495
474 2 0.738783 0.412571 0.0208505
475 2 0.715624 0.366872 0.0210339
476 2 0.728056 0.400329 0.026318
477 2 0.717159 0.40657 0.0197421
478 2 0.734381 0.399988 0.00702727
479 2 0.731627 0.391486 0.0196759
480 2 0.712805 0.386224 0.019039
481 1 0.713313 0.340649 0.0133255
482 1 0.707253 0.356715 0.0205372
483 1 0.712825 0.315781 0.0264082
484 1 0.71686 0.341891 0.0272776
485 2 0.679562 0.312757 0.0275922
486 2 0.727502 0.379469 0.0253881
487 2 0.690538 0.336431 0.0202251
488 2 0.710443 0.315127 0.0216576
489 2 0.715143 0.328733 0.027438
490 2 0.723994 0.343343 0.0105461
491 2 0.708627 0.347875 0.0242054
492 2 0.709799 0.350881 0.016218
493 1 0.678929 0.287978 0.0102977
494 1 0.68643 0.326199 0.0173571
495 1 0.669585 0.271826 0.0308968
496 1 0.700914 0.280442 0.0133679
497 2 0.6693 0.283284 0.0334994
498 2 0.705765 0.292449 0.0117865
499 2 0.688367 0.279482 0.012225
500 2 0.704489 0.278613 0.0179361
501 2 0.709108 0.283759 0.0258935
502 2 0.682728 0.301311 0.00936721
503 2 0.6973 0.319173 0.0160126
504 2 0.679936 0.331614 0.0135468
505 1 0.628898 0.658578 0.0158977
506 1 0.614792 0.654175 0.0235096
507 1 0.652419 0.637382 0.0248214
508 1 0.664701 0.657905 0.0283188
509 2 0.642084 0.635799 0.027828
510 2 0.623261 0.647156 0.0263798
511 2 0.633347 0.645725 0.0157756
512 2 0.656853 0.649739 0.0257177
513 2 0.662485 0.655988 0.0329794
514 2 0.638714 0.667609 0.0155091
515 2 0.606264 0.658997 0.0269232
516 2 0.622766 0.66024 0.0202388
517 1 0.645493 0.619744 0.0104433
518 1 0.635878 0.633519 0.0175769
519 1 0.693227 0.58753 0.0230965
520 1 0.665013 0.604643 0.0217492
521 2 0.666762 0.600934 0.0263302
522 2 0.663653 0.630145 0.0252727
523 2 0.667459 0.592965 0.0194496
524 2 0.672278 0.615735 0.0208955
525 2 0.652081 0.606698 0.0209127
526 2 0.652058 0.608042 0.00986632
527 2 0.646392 0.635214 0.0205582
528 2 0.638878 0.623733 0.014431
529 1 0.656301 0.57625 0.996524
530 1 0.662568 0.582625 0.016814
531 1 0.700365 0.547293 0.0279176
532 1 0.681193 0.566212 0.0189203
533 2 0.663094 0.546029 0.0261833
534 2 0.690916 0.560128 0.0163999
535 2 0.662925 0.590573 0.00534235
536 2 0.676559 0.557225 0.0219816
537 2 0.68672 0.576689 0.0213397
538 2 0.667194 0.578781 0.999057
539 2 0.671569 0.5727 0.0164714
540 2 0.660328 0.589132 0.0127128
541 1 0.681229 0.378584 0.015432
542 1 0.67154 0.39455 0.0286308
543 1 0.690763 0.367645 0.0366698
544 1 0.685248 0.394258 0.0229596
545 2 0.666775 0.355483 0.0311165
546 2 0.697389 0.398676 0.0219495
547 2 0.674057 0.369144 0.0175785
548 2 0.671443 0.393635 0.0335049
549 2 0.680975 0.38603 0.0266878
550 2 0.692846 0.373574 0.0136073
551 2 0.682469 0.388312 0.0187417
552 2 0.677116 0.402981 0.025365
553 1 0.675955 0.341076 0.0103214
554 1 0.669276 0.356891 0.0174525
555 1 0.670969 0.314208 0.0238975
556 1 0.686521 0.347152 0.0227764
557 2 0.636775 0.318495 0.0259489
558 2 0.693933 0.357693 0.0212481
559 2 0.668584 0.316077 0.00789824
560 2 0.677857 0.31997 0.020299
561 2 0.684394 0.345672 0.0275533
562 2 0.685776 0.341112 0.0069157
563 2 0.674262 0.349534 0.0210107
564 2 0.673907 0.351621 0.0132623
565 1 0.653254 0.288869 0.00763657
566 1 0.657511 0.313387 0.0104331
567 1 0.644908 0.276045 0.0300156
568 1 0.664287 0.297712 0.0175685
569 2 0.638684 0.279172 0.025888
570 2 0.660641 0.308688 0.0148709
571 2 0.67384 0.291839 0.0150934
572 2 0.65667 0.269954 0.0298611
573 2 0.666878 0.302591 0.0219826
574 2 0.665825 0.285967 0.00863431
575 2 0.636172 0.319955 0.0164835
576 2 0.652341 0.302232 0.00850962
577 1 0.596841 0.644726 0.01709
578 1 0.573861 0.658313 0.0177005
579 1 0.629302 0.637928 0.0291961
580 1 0.597411 0.652436 0.0296556
581 2 0.630396 0.640167 0.0338954
582 2 0.595701 0.640296 0.0275065
583 2 0.593005 0.632198 0.018058
584 2 0.605978 0.648621 0.0203476
585 2 0.584864 0.657874 0.0292871
586 2 0.602645 0.646304 0.0127249
587 2 0.574729 0.661587 0.0223845
588 2 0.58568 0.652355 0.0169487
589 1 0.608155 0.609806 0.0108357
590 1 0.590042 0.619496 0.0168733
591 1 0.639487 0.602807 0.0210839
592 1 0.621514 0.620788 0.0235554
593 2 0.634623 0.572491 0.0310703
594 2 0.62487 0.629775 0.0200853
595 2 0.615965 0.601187 0.0131399
596 2 0.63137 0.61213 0.0228011
597 2 0.622703 0.626931 0.0278119
598 2 0.615838 0.617799 0.0081909
599 2 0.6098 0.614679 0.0233149
600 2 0.599848 0.616467 0.0137395
601 1 0.629095 0.569575 0.0106587
602 1 0.62422 0.592476 0.0151547
603 1 0.651897 0.553533 0.0267691
604 1 0.641671 0.56779 0.0193246
605 2 0.619562 0.558837 0.0279453
606 2 0.651172 0.577116 0.01838
607 2 0.636071 0.565127 0.0147428
608 2 0.648278 0.559389 0.0224615
609 2 0.6367 0.592335 0.0239272
610 2 0.634191 0.569846 0.00600694
611 2 0.631715 0.572985 0.022058
612 2 0.627198 0.582423 0.0121395
613 1 0.638284 0.375971 0.0130085
614 1 0.627507 0.38367 0.0213067
615 1 0.657955 0.36562 0.0316341
616 1 0.647397 0.385238 0.0273967
617 2 0.609539 0.353633 0.0299337
618 2 0.658745 0.392449 0.0274412
619 2 0.638997 0.362763 0.0138404
620 2 0.653128 0.372705 0.0278281
621 2 0.640953 0.386538 0.031631
622 2 0.650795 0.380687 0.0125895
623 2 0.638327 0.387583 0.0239217
624 2 0.631771 0.381441 0.0167748
625 1 0.639463 0.329876 0.0134163
626 1 0.643618 0.353327 0.0168431
627 1 0.623995 0.321714 0.0267634
628 1 0.626437 0.358297 0.0237735
629 2 0.599954 0.313489 0.0324326
630 2 0.656067 0.35711 0.017799
631 2 0.627346 0.333941 0.0119547
632 2 0.620301 0.334607 0.0262116
633 2 0.646244 0.361748 0.0336422
634 2 0.648419 0.32326 0.0106535
635 2 0.635123 0.353558 0.0206051
636 2 0.644704 0.340867 0.0152545
637 1 0.642143 0.28616 0.0155222
638 1 0.629395 0.309417 0.0149083
639 1 0.628599 0.28113 0.022722
640 1 0.613429 0.303443 0.0213946
641 2 0.618882 0.274984 0.0253016
642 2 0.635889 0.297997 0.0153139
643 2 0.63386 0.27904 0.0183711
644 2 0.621831 0.293093 0.0225474
645 2 0.653668 0.289405 0.0176906
646 2 0.645269 0.283023 0.0109525
647 2 0.615815 0.313322 0.0245065
648 2 0.626881 0.310784 0.0102329
649 1 0.554967 0.642132 0.0142966
650 1 0.532668 0.662301 0.0227281
651 1 0.58772 0.630226 0.0289453
652 1 0.573626 0.661237 0.0271052
653 2 0.588892 0.630864 0.0337189
654 2 0.570218 0.66876 0.0149426
655 2 0.558845 0.629549 0.014407
656 2 0.57555 0.634179 0.0276252
657 2 0.564247 0.669514 0.0287071
658 2 0.563578 0.64978 0.0167619
659 2 0.5439 0.665089 0.0252411
660 2 0.533309 0.648632 0.0226619
661 1 0.564128 0.617465 0.015258
662 1 0.550545 0.620116 0.0227028
663 1 0.625696 0.584238 0.023789
664 1 0.597718 0.609535 0.0245358
665 2 0.582198 0.57173 0.0248995
666 2 0.590946 0.610483 0.0204262
667 2 0.583628 0.600184 0.0128821
668 2 0.599477 0.598156 0.0269146
669 2 0.591524 0.618531 0.0273309
670 2 0.577104 0.619766 0.0157077
671 2 0.557359 0.63136 0.0238264
672 2 0.557598 0.613874 0.0192834
673 1 0.578705 0.56753 0.0108911
674 1 0.58267 0.589947 0.0160755
675 1 0.607396 0.562921 0.0267959
676 1 0.600376 0.574356 0.0188666
677 2 0.576276 0.55097 0.0239478
678 2 0.61994 0.58864 0.0195737
679 2 0.570277 0.561543 0.0140251
680 2 0.607388 0.57152 0.022926
681 2 0.635345 0.598939 0.0166508
682 2 0.591725 0.564083 0.0099593
683 2 0.605703 0.573628 0.014473
684 2 0.593996 0.586017 0.0183127
685 1 0.600405 0.382873 0.0099517
686 1 0.602897 0.384967 0.0192104
687 1 0.609248 0.342591 0.0268452
688 1 0.610052 0.358092 0.0344037
689 2 0.613586 0.353815 0.02288
690 2 0.614954 0.389057 0.0210402
691 2 0.599241 0.36943 0.0107425
692 2 0.625775 0.37147 0.023295
693 2 0.600586 0.365621 0.0361833
694 2 0.61139 0.38468 0.0073088
695 2 0.603896 0.371651 0.0199852
696 2 0.602278 0.387477 0.0144628
697 1 0.615817 0.33814 0.0100188
698 1 0.600349 0.356284 0.0118216
699 1 0.589248 0.313916 0.0294476
700 1 0.591594 0.329865 0.0217457
701 2 0.542615 0.303858 0.0281704
702 2 0.590993 0.320741 0.0253497
703 2 0.618096 0.307953 0.0172626
704 2 0.579437 0.335577 0.0218116
705 2 0.599902 0.339379 0.0235527
706 2 0.619511 0.339778 0.00538804
707 2 0.597751 0.354453 0.0166313
708 2 0.612546 0.350563 0.0115969
709 1 0.59787 0.297243 0.0109164
710 1 0.593981 0.323032 0.0124344
711 1 0.589251 0.288484 0.0273518
712 1 0.589254 0.294957 0.0191131
713 2 0.563364 0.275701 0.0269853
714 2 0.600712 0.299895 0.0210582
715 2 0.593289 0.290204 0.0148106
716 2 0.586724 0.28601 0.0226872
717 2 0.586573 0.301329 0.028269
718 2 0.610582 0.297133 0.00925048
719 2 0.595788 0.325171 0.0176118
720 2 0.595671 0.309255 0.0128594
721 1 0.529515 0.642924 0.0138958
722 1 0.525718 0.668646 0.0140267
723 1 0.562836 0.637689 0.0274878
724 1 0.552971 0.662407 0.0285434
725 2 0.522835 0.632345 0.0254999
726 2 0.532331 0.66837 0.0183359
727 2 0.542205 0.643316 0.0157464
728 2 0.562557 0.651521 0.027377
729 2 0.547503 0.658113 0.0324924
730 2 0.532108 0.639325 0.00939316
731 2 0.520319 0.664341 0.0245883
732 2 0.525072 0.655254 0.0134492
733 1 0.528104 0.612295 0.0103854
734 1 0.530165 0.635609 0.0217116
735 1 0.571907 0.57977 0.0235068
736 1 0.541296 0.602336 0.028538
737 2 0.548634 0.591926 0.0297669
738 2 0.539021 0.625626 0.0212972
739 2 0.528787 0.60448 0.014419
740 2 0.574467 0.588891 0.0199401
741 2 0.54839 0.612311 0.0265385
742 2 0.540821 0.615143 0.00943268
743 2 0.532566 0.598957 0.0250034
744 2 0.518715 0.621415 0.0113378
745 1 0.541951 0.572562 0.00528321
746 1 0.5394 0.572421 0.0143873
747 1 0.56415 0.544434 0.0239745
748 1 0.561065 0.561194 0.0176427
749 2 0.537222 0.561905 0.0304068
750 2 0.579963 0.579747 0.0129865
751 2 0.543324 0.575774 0.00989961
752 2 0.559972 0.549336 0.0196547
753 2 0.564713 0.570601 0.0209857
754 2 0.552865 0.566438 0.0036555
755 2 0.549078 0.565203 0.0161121
756 2 0.542406 0.583623 0.00255456
757 1 0.559026 0.382692 0.00938379
758 1 0.553831 0.388671 0.0180087
759 1 0.601289 0.358721 0.0210766
760 1 0.577827 0.381334 0.021016
761 2 0.561762 0.371057 0.0348263
762 2 0.589983 0.387211 0.0207189
763 2 0.565225 0.372126 0.0114504
764 2 0.566067 0.387454 0.0199365
765 2 0.57707 0.375103 0.0252985
766 2 0.568107 0.388492 0.00652649
767 2 0.544767 0.394141 0.0211394
768 2 0.555466 0.390297 0.0132518
769 1 0.573736 0.340408 0.0111668
770 1 0.569406 0.363619 0.0148677
771 1 0.550784 0.313258 0.0262726
772 1 0.569117 0.340946 0.0241354
773 2 0.525391 0.354873 0.0268933
774 2 0.594485 0.350081 0.00800241
775 2 0.5826 0.331608 0.0126868
776 2 0.567499 0.334149 0.0282277
777 2 0.572144 0.353533 0.0254044
778 2 0.575957 0.342251 0.00639897
779 2 0.577165 0.371111 0.0177695
780 2 0.575016 0.352589 0.0131528
781 1 0.561792 0.274243 0.00834503
782 1 0.559738 0.305377 0.00961337
783 1 0.557028 0.277953 0.0228368
784 1 0.56387 0.302028 0.0190528
785 2 0.521923 0.270806 0.0344469
786 2 0.577531 0.301833 0.0190105
787 2 0.569819 0.298572 0.00756259
788 2 0.560406 0.289877 0.0208743
789 2 0.557205 0.310365 0.022164
790 2 0.573792 0.27799 0.00701272
791 2 0.560391 0.304842 0.0144636
792 2 0.549031 0.299136 0.00770787
793 1 0.498202 0.64823 0.00748152
794 1 0.50219 0.663693 0.0153263
795 1 0.513798 0.635805 0.0288623
796 1 0.507744 0.659196 0.0246038
797 2 0.519795 0.635421 0.0331757
798 2 0.512818 0.671823 0.0146261
799 2 0.485138 0.644832 0.00813284
800 2 0.509213 0.647587 0.0271234
801 2 0.497023 0.665984 0.0263376
802 2 0.504737 0.63658 0.00828364
803 2 0.504998 0.657979 0.0197416
804 2 0.501326 0.65592 0.0113403
805 1 0.497658 0.601887 0.0106161
806 1 0.506191 0.626486 0.0113953
807 1 0.519946 0.595462 0.0247573
808 1 0.502138 0.614191 0.0264076
809 2 0.49805 0.590119 0.0314449
810 2 0.51242 0.605659 0.0260971
811 2 0.501569 0.595981 0.0147995
812 2 0.49172 0.607929 0.0283428
813 2 0.505323 0.625485 0.0286632
814 2 0.504714 0.597319 0.00680154
815 2 0.523559 0.636642 0.0174969
816 2 0.499663 0.615065 0.0104273
817 1 0.51574 0.573048 0.0124136
818 1 0.504686 0.58706 0.0181904
819 1 0.527035 0.553197 0.0311522
820 1 0.527034 0.592455 0.0161006
821 2 0.495085 0.556662 0.0316436
822 2 0.536828 0.583892 0.0168957
823 2 0.527097 0.566949 0.0136962
824 2 0.536987 0.544319 0.0313366
825 2 0.51744 0.591964 0.0198956
826 2 0.508252 0.571219 0.00857377
827 2 0.521018 0.585725 0.0124903
828 2 0.507693 0.575369 0.0162092
829 1 0.519149 0.364583 0.011946
830 1 0.511495 0.380673 0.0190989
831 1 0.536906 0.362132 0.0265545
832 1 0.535985 0.383753 0.0214906
833 2 0.495861 0.358309 0.032249
834 2 0.544692 0.378372 0.0182352
835 2 0.522758 0.352458 0.0134739
836 2 0.53508 0.374975 0.0251194
837 2 0.52345 0.385961 0.0201003
838 2 0.529127 0.370837 0.00959024
839 2 0.514476 0.370983 0.0159014
840 2 0.501549 0.38765 0.0169549
841 1 0.530046 0.320089 0.0121521
842 1 0.527462 0.342666 0.0162616
843 1 0.518832 0.343656 0.0253468
844 1 0.550305 0.35029 0.0193587
845 2 0.484007 0.338076 0.034668
846 2 0.558287 0.341222 0.0214017
847 2 0.531933 0.309283 0.0149897
848 2 0.540603 0.345028 0.0166673
849 2 0.543633 0.356225 0.0229711
850 2 0.541 0.325362 0.0101481
851 2 0.558738 0.358777 0.0172061
852 2 0.525076 0.330398 0.0146388
853 1 0.527866 0.27358 0.0150475
854 1 0.527101 0.297998 0.0167604
855 1 0.515329 0.276472 0.0307634
856 1 0.531289 0.281794 0.0234375
857 2 0.50585 0.270204 0.0281021
858 2 0.531245 0.293689 0.0211184
859 2 0.525976 0.274006 0.0198638
860 2 0.524228 0.280637 0.0274501
861 2 0.524347 0.333032 0.0276186
862 2 0.539949 0.268097 0.0144421
863 2 0.513951 0.299148 0.0176692
864 2 0.557618 0.279998 0.0125687
865 1 0.473817 0.643568 0.0108279
866 1 0.477748 0.663338 0.0172049
867 1 0.481792 0.637657 0.0266007
868 1 0.483916 0.662683 0.0266319
869 2 0.469747 0.638069 0.0244402
870 2 0.489601 0.668316 0.0157616
871 2 0.471418 0.631201 0.0126302
872 2 0.484529 0.650021 0.0280241
873 2 0.473149 0.667694 0.0290092
874 2 0.463389 0.646382 0.00795717
875 2 0.479726 0.66158 0.0219909
876 2 0.475892 0.65213 0.0145545
877 1 0.459059 0.597141 0.0127868
878 1 0.46941 0.620588 0.0156039
879 1 0.486782 0.596505 0.0301498
880 1 0.492804 0.625599 0.0192817
881 2 0.459591 0.603205 0.0296343
882 2 0.500021 0.630081 0.0155573
883 2 0.461339 0.5868 0.0156671
884 2 0.499854 0.616528 0.0217046