ITEM: TIMESTEP
860070
ITEM: NUMBER OF ATOMS
81498
ITEM: BOX BOUNDS pp pp pp
-9.3836106233695915e+00 1.1102005262335830e+02
-3.4801250734791239e+01 8.5614083731937271e+01
3.1072148460350490e-01 3.3332253851537405e+02
ITEM: ATOMS id type xs ys zs
1 1 0.488387 0.865936 0.00959345
2 1 0.483889 0.845137 0.0141111
3 1 0.561109 0.830335 0.0235416
4 1 0.514054 0.83112 0.0220749
5 2 0.540606 0.813569 0.0274535
6 3 0.521432 0.84234 0.0211747
7 2 0.535004 0.840992 0.0170215
8 2 0.537095 0.842144 0.0093995
9 2 0.521914 0.823592 0.0248975
10 2 0.49697 0.876486 0.00948615
11 2 0.501578 0.828064 0.0237572
12 2 0.484846 0.858528 0.0133777
13 1 0.565148 0.84279 0.0126427
14 1 0.540165 0.849178 0.0133936
15 1 0.593945 0.822251 0.0285268
16 1 0.577203 0.849949 0.0204728
17 2 0.586568 0.81283 0.0261827
18 2 0.573605 0.861458 0.021885
19 2 0.573766 0.84725 0.0158053
20 2 0.5891 0.827955 0.0176323
21 2 0.567577 0.818363 0.0232145
22 2 0.567554 0.846324 0.00803571
23 2 0.570227 0.839919 0.0229352
24 2 0.553153 0.847849 0.0137916
25 1 0.597952 0.830999 0.00527163
26 1 0.591156 0.820489 0.0137119
27 1 0.614954 0.81042 0.0270667
28 1 0.596705 0.835546 0.0206152
29 2 0.609175 0.798301 0.027516
30 2 0.608786 0.830861 0.018837
31 2 0.589957 0.828364 0.00133586
32 2 0.606334 0.81814 0.0293388
33 2 0.590621 0.847199 0.0204898
34 2 0.590335 0.846507 0.997297
35 2 0.595464 0.831558 0.0251895
36 2 0.593246 0.827766 0.00964316
37 1 0.612053 0.810667 0.00484743
38 1 0.613054 0.81796 0.0179236
39 1 0.666745 0.779386 0.0164602
40 1 0.623918 0.80067 0.012608
41 2 0.645709 0.76069 0.0231073
42 2 0.636648 0.795774 0.0122331
43 2 0.599553 0.805436 0.00532898
44 2 0.657659 0.786592 0.0140843
45 2 0.622823 0.811715 0.0154537
46 2 0.616695 0.80698 0.000512085
47 2 0.614712 0.791333 0.0142032
48 2 0.602352 0.814276 0.0151598
49 1 0.646692 0.751167 0.00298445
50 1 0.635261 0.771334 0.00654679
51 1 0.685646 0.771903 0.0165952
52 1 0.648485 0.790347 0.0107281
53 2 0.680826 0.743462 0.0234836
54 2 0.654551 0.797322 0.00711866
55 2 0.639265 0.762449 0.00315294
56 2 0.679168 0.783255 0.0180189
57 2 0.674355 0.770551 0.013855
58 2 0.650057 0.750311 0.00754614
59 2 0.644862 0.779186 0.00833038
60 2 0.619724 0.805424 0.00828664
61 1 0.686426 0.759243 0.00144792
62 1 0.708972 0.757637 0.00533452
63 1 0.720819 0.726238 0.0218155
64 1 0.707268 0.764038 0.0123926
65 2 0.694212 0.707716 0.0184592
66 2 0.697286 0.77128 0.0142451
67 2 0.715393 0.747007 0.00358155
68 2 0.701152 0.747851 0.0211335
69 2 0.701884 0.75459 0.0094412
70 2 0.679074 0.769681 0.999991
71 2 0.714333 0.766993 0.00834209
72 2 0.699304 0.761975 0.00245407
73 1 0.711638 0.733893 0.00283133
74 1 0.697947 0.732292 0.0110161
75 1 0.725637 0.705812 0.0168413
76 1 0.710817 0.745376 0.017974
77 2 0.711704 0.68203 0.0216522
78 2 0.713438 0.757172 0.0158206
79 2 0.704459 0.73246 0.00684994
80 2 0.727269 0.717882 0.0187911
81 2 0.720575 0.738597 0.0201129
82 2 0.702744 0.734628 0.999246
83 2 0.705348 0.73753 0.0145849
84 2 0.685777 0.737334 0.0102845
85 1 0.692886 0.702504 0.000817053
86 1 0.699514 0.7076 0.0140517
87 1 0.7181 0.667966 0.0127335
88 1 0.726121 0.69243 0.00986306
89 2 0.70314 0.662799 0.0202832
90 2 0.71866 0.701809 0.00745145
91 2 0.69769 0.68136 0.00750734
92 2 0.720665 0.681177 0.0118618
93 2 0.732008 0.699969 0.0131744
94 2 0.702903 0.708535 0.00304296
95 2 0.712657 0.705648 0.0152231
96 2 0.697761 0.690016 0.000345209
97 1 0.695349 0.654985 0.00292063
98 1 0.701192 0.679586 0.00291957
99 1 0.710834 0.632408 0.0205364
100 1 0.720657 0.651427 0.00559846
101 2 0.688906 0.600967 0.0222888
102 2 0.732012 0.687839 0.00579829
103 2 0.707836 0.651098 0.00394555
104 2 0.721522 0.639707 0.0081106
105 2 0.723048 0.660721 0.00904385
106 2 0.715025 0.678571 0.00205585
107 2 0.705039 0.664402 0.012061
108 2 0.671912 0.676966 0.00447475
109 1 0.692079 0.6231 0.00623287
110 1 0.673106 0.629118 0.0121512
111 1 0.698891 0.590633 0.020575
112 1 0.712271 0.633421 0.0110776
113 2 0.687819 0.55829 0.0212932
114 2 0.70462 0.644071 0.0120649
115 2 0.667673 0.574159 0.00665788
116 2 0.69405 0.590958 0.0113519
117 2 0.714066 0.628976 0.0157727
118 2 0.68886 0.627033 0.00165285
119 2 0.704101 0.626507 0.00810041
120 2 0.682665 0.629833 0.00879953
121 1 0.459177 0.785297 0.0113829
122 1 0.45994 0.805598 0.016926
123 1 0.531132 0.814021 0.0241265
124 1 0.473883 0.826058 0.0189854
125 2 0.503506 0.807472 0.0223742
126 2 0.469672 0.82408 0.023672
127 2 0.47579 0.838439 0.0172045
128 2 0.489123 0.794501 0.018324
129 2 0.486463 0.820892 0.0189089
130 2 0.480615 0.84113 0.00962873
131 2 0.447516 0.808492 0.0184606
132 2 0.45267 0.816968 0.00448956
133 1 0.524888 0.839932 0.00752771
134 1 0.506486 0.832689 0.0134713
135 1 0.575089 0.807713 0.0244565
136 1 0.541179 0.82845 0.0173862
137 2 0.549174 0.780306 0.0292183
138 2 0.565205 0.829239 0.0124807
139 2 0.515652 0.839649 0.0109843
140 2 0.552303 0.830714 0.0198654
141 2 0.535674 0.81871 0.0199811
142 2 0.524317 0.851648 0.0052958
143 2 0.512079 0.827378 0.0174177
144 2 0.496375 0.840576 0.0148017
145 1 0.556262 0.812551 0.00358066
146 1 0.567458 0.816339 0.0116273
147 1 0.638392 0.780167 0.030273
148 1 0.579651 0.78781 0.0180758
149 2 0.591137 0.778741 0.0259776
150 2 0.580034 0.813754 0.0128894
151 2 0.553432 0.79967 0.00282984
152 2 0.592519 0.788583 0.0167923
153 2 0.576777 0.797692 0.0212924
154 2 0.559716 0.816617 0.999197
155 2 0.565801 0.814138 0.00686413
156 2 0.54021 0.823574 0.012931
157 1 0.577785 0.777371 0.00527147
158 1 0.558551 0.793893 0.0137706
159 1 0.633496 0.76576 0.0231082
160 1 0.604946 0.78344 0.0160952
161 2 0.611019 0.743489 0.0265266
162 2 0.61476 0.813412 0.0224125
163 2 0.570996 0.789752 0.0144584
164 2 0.634558 0.776984 0.0257286
165 2 0.60797 0.779329 0.0206001
166 2 0.586912 0.786556 0.00655751
167 2 0.601987 0.772051 0.0136795
168 2 0.559377 0.807232 0.0136423
169 1 0.598132 0.763909 0.00218989
170 1 0.600572 0.760859 0.0111209
171 1 0.669126 0.738803 0.0218242
172 1 0.633693 0.758411 0.0145653
173 2 0.635707 0.733305 0.0217894
174 2 0.631167 0.764875 0.0105006
175 2 0.62745 0.746795 0.0141361
176 2 0.663758 0.750375 0.0203542
177 2 0.630108 0.765506 0.0184466
178 2 0.607777 0.769582 0.999683
179 2 0.607694 0.751074 0.0130419
180 2 0.603533 0.764615 0.00662365
181 1 0.638109 0.726723 0.00221864
182 1 0.615608 0.740578 0.013959
183 1 0.663427 0.717494 0.0173547
184 1 0.653639 0.746614 0.0120065
185 2 0.656075 0.688528 0.0207858
186 2 0.66682 0.746921 0.0116796
187 2 0.646519 0.722543 0.00570231
188 2 0.659752 0.716615 0.0127144
189 2 0.670249 0.728604 0.0186543
190 2 0.668891 0.736044 0.0051944
191 2 0.646713 0.755302 0.0146673
192 2 0.614118 0.732413 0.0101865
193 1 0.668254 0.702228 0.0038308
194 1 0.631897 0.706871 0.0154701
195 1 0.700359 0.675875 0.0203017
196 1 0.648612 0.721286 0.010496
197 2 0.672943 0.668717 0.022513
198 2 0.649088 0.733934 0.0123022
199 2 0.681271 0.700172 0.00297779
200 2 0.67478 0.689895 0.024391
201 2 0.697273 0.719279 0.0120975
202 2 0.668343 0.715442 0.00366885
203 2 0.627865 0.716368 0.0184412
204 2 0.638429 0.713449 0.0119701
205 1 0.667031 0.672807 0.000307414
206 1 0.6673 0.681328 0.00872834
207 1 0.686475 0.641579 0.018738
208 1 0.691378 0.684641 0.0117219
209 2 0.671749 0.630021 0.0261469
210 2 0.693948 0.69768 0.0117018
211 2 0.663369 0.638148 0.0125758
212 2 0.679391 0.648186 0.0220492
213 2 0.695997 0.680756 0.0160964
214 2 0.674287 0.677956 0.99673
215 2 0.678305 0.681484 0.0115025
216 2 0.66441 0.694249 0.00751371
217 1 0.654695 0.614641 7.27816e-05
218 1 0.656371 0.641389 0.0165411
219 1 0.677817 0.604131 0.0192481
220 1 0.696149 0.654287 0.0117753
221 2 0.653935 0.57936 0.0212924
222 2 0.696643 0.667712 0.00171038
223 2 0.663093 0.611584 0.00370677
224 2 0.679787 0.631995 0.0163002
225 2 0.687938 0.651202 0.015312
226 2 0.669629 0.638345 0.999724
227 2 0.6903 0.654674 0.00739268
228 2 0.647256 0.624816 0.00192555
229 1 0.661396 0.575237 0.00240007
230 1 0.657294 0.588076 0.0178661
231 1 0.675755 0.521785 0.0197879
232 1 0.686115 0.600764 0.0105165
233 2 0.66127 0.501077 0.0283981
234 2 0.690182 0.610472 0.00749226
235 2 0.659908 0.561421 0.012042
236 2 0.677902 0.570349 0.0147063
237 2 0.683315 0.606195 0.0149979
238 2 0.668669 0.57852 0.99843
239 2 0.668749 0.594532 0.0189448
240 2 0.652115 0.585081 0.00240541
241 1 0.450244 0.787799 0.00307064
242 1 0.4343 0.81152 0.018357
243 1 0.494279 0.817041 0.0225602
244 1 0.424667 0.821279 0.0104876
245 2 0.477067 0.755218 0.0217915
246 2 0.431178 0.819984 0.014722
247 2 0.45131 0.777526 0.0140739
248 2 0.490588 0.768268 0.0132702
249 2 0.432515 0.816082 0.00698952
250 2 0.45616 0.782006 0.00682612
251 2 0.429775 0.815094 0.0227869
252 2 0.443571 0.797224 0.00553644
253 1 0.489817 0.796313 0.00602334
254 1 0.478061 0.769766 0.011787
255 1 0.537902 0.776456 0.0268615
256 1 0.498712 0.793744 0.014937
257 2 0.510319 0.786367 0.0250418
258 2 0.50213 0.823747 0.010229
259 2 0.49222 0.7933 0.0106662
260 2 0.509875 0.801184 0.0143629
261 2 0.504531 0.78188 0.0157286
262 2 0.489455 0.809652 0.00611631
263 2 0.466312 0.817372 0.016519
264 2 0.471857 0.781506 0.0120105
265 1 0.512706 0.785509 0.00473674
266 1 0.521807 0.797592 0.0124643
267 1 0.58248 0.771474 0.0286574
268 1 0.53862 0.782444 0.0176135
269 2 0.548965 0.744379 0.0242995
270 2 0.550376 0.788762 0.01703
271 2 0.53951 0.770162 0.0155277
272 2 0.540164 0.763282 0.0265074
273 2 0.536776 0.78076 0.0223489
274 2 0.5287 0.807568 0.0103355
275 2 0.529656 0.7904 0.0154181
276 2 0.517914 0.789572 0.00886767
277 1 0.561285 0.758635 0.0069614
278 1 0.541695 0.757973 0.0135239
279 1 0.599679 0.747777 0.0244351
280 1 0.571882 0.763261 0.0212516
281 2 0.579278 0.732116 0.0215731
282 2 0.57592 0.775166 0.0195013
283 2 0.568725 0.747922 0.00786646
284 2 0.57797 0.762568 0.0255637
285 2 0.559188 0.762711 0.0228487
286 2 0.554202 0.789517 0.00948302
287 2 0.570206 0.768664 0.00771586
288 2 0.550955 0.759309 0.0100154
289 1 0.58848 0.699234 0.0168118
290 1 0.581057 0.743766 0.00906859
291 1 0.623971 0.726905 0.0209679
292 1 0.58255 0.740968 0.0181208
293 2 0.603877 0.703651 0.0245273
294 2 0.588736 0.754814 0.0101209
295 2 0.582891 0.692272 0.0130975
296 2 0.615815 0.73408 0.0181771
297 2 0.594648 0.74459 0.020022
298 2 0.585892 0.737938 0.00502864
299 2 0.575241 0.752486 0.0187131
300 2 0.581653 0.73807 0.0134451
301 1 0.608463 0.700545 0.00479375
302 1 0.593347 0.687174 0.0107733
303 1 0.644234 0.685679 0.0188064
304 1 0.613218 0.689089 0.0160785
305 2 0.605076 0.664988 0.0229336
306 2 0.620944 0.699213 0.0149479
307 2 0.597406 0.674599 0.0106987
308 2 0.615914 0.679106 0.0130496
309 2 0.612222 0.683903 0.0205089
310 2 0.6106 0.712534 0.00680219
311 2 0.600227 0.692325 0.0150313
312 2 0.598849 0.693848 0.00717561
313 1 0.616935 0.654449 0.0038973
314 1 0.60918 0.668122 0.0115134
315 1 0.668663 0.656197 0.0222298
316 1 0.612376 0.656957 0.0200187
317 2 0.646091 0.647388 0.031274
318 2 0.640049 0.697643 0.0173097
319 2 0.637965 0.658401 0.0110341
320 2 0.624726 0.661541 0.0214842
321 2 0.642967 0.67729 0.0150568
322 2 0.636097 0.678272 0.00733162
323 2 0.609529 0.660757 0.015486
324 2 0.614625 0.662184 0.00772707
325 1 0.636835 0.626711 0.005044
326 1 0.634908 0.644934 0.0119799
327 1 0.663248 0.623554 0.0232391
328 1 0.643069 0.671186 0.0107047
329 2 0.631525 0.616731 0.0261226
330 2 0.656348 0.673859 0.00963414
331 2 0.63781 0.63715 0.00811825
332 2 0.658344 0.631709 0.0198563
333 2 0.661515 0.652585 0.0183876
334 2 0.629545 0.651913 0.00211932
335 2 0.643754 0.642536 0.0154602
336 2 0.61194 0.642497 0.00471664
337 1 0.641489 0.59243 0.00113117
338 1 0.637668 0.602785 0.0089056
339 1 0.682689 0.569577 0.0192822
340 1 0.663486 0.607085 0.00829839
341 2 0.651255 0.562992 0.0264577
342 2 0.666579 0.617705 0.0111501
343 2 0.660218 0.581683 0.0137864
344 2 0.673506 0.598584 0.00895469
345 2 0.671193 0.614083 0.0212817
346 2 0.645782 0.604725 -3.51104e-05
347 2 0.651267 0.602671 0.0092874
348 2 0.635987 0.615689 0.00778212
349 1 0.6435 0.561762 0.998049
350 1 0.629251 0.569076 0.0161144
351 1 0.664203 0.513867 0.0119379
352 1 0.667575 0.572202 0.0114828
353 2 0.640055 0.488487 0.016109
354 2 0.646567 0.595849 0.0178008
355 2 0.655138 0.524272 0.0119127
356 2 0.673547 0.516976 0.0153883
357 2 0.671585 0.534614 0.0198403
358 2 0.641222 0.548698 0.997373
359 2 0.641053 0.562994 0.0160613
360 2 0.625182 0.571286 0.0115715
361 1 0.400511 0.813778 0.00961329
362 1 0.389243 0.822511 0.0173421
363 1 0.470737 0.765087 0.0195637
364 1 0.425933 0.807038 0.026601
365 2 0.459004 0.767491 0.0215231
366 2 0.386171 0.834111 0.0188026
367 2 0.427724 0.800143 0.0170613
368 2 0.458655 0.797891 0.012986
369 2 0.42178 0.806362 0.031395
370 2 0.41354 0.81392 0.0106609
371 2 0.398748 0.816199 0.0201533
372 2 0.394425 0.821678 0.0127668
373 1 0.474196 0.770203 0.995005
374 1 0.442934 0.767468 0.0150806
375 1 0.502327 0.768868 0.0155918
376 1 0.478256 0.760945 0.00298443
377 2 0.495905 0.749059 0.0246246
378 2 0.47682 0.766233 0.00727148
379 2 0.470664 0.765169 0.999339
380 2 0.515386 0.75195 0.00630824
381 2 0.476329 0.74808 0.00385046
382 2 0.474583 0.783469 0.995893
383 2 0.471259 0.762139 0.0149002
384 2 0.43248 0.769494 0.0119862
385 1 0.515645 0.760872 0.00272614
386 1 0.508413 0.729141 0.0160506
387 1 0.542681 0.740001 0.0203841
388 1 0.51706 0.750999 0.0111772
389 2 0.505913 0.727208 0.020999
390 2 0.53019 0.752976 0.0118324
391 2 0.508337 0.7591 0.998677
392 2 0.545185 0.748793 0.0168961
393 2 0.511121 0.761553 0.0132304
394 2 0.487037 0.765849 0.994321
395 2 0.511885 0.74047 0.0136314
396 2 0.520502 0.722969 0.0163262
397 1 0.594661 0.614369 0.00574592
398 1 0.590787 0.623921 0.0142622
399 1 0.621934 0.613299 0.0229058
400 1 0.614497 0.633462 0.0170561
401 2 0.602933 0.587623 0.0228903
402 2 0.623371 0.63974 0.0138979
403 2 0.589277 0.620552 0.00949682
404 2 0.619301 0.623578 0.0199504
405 2 0.611746 0.643852 0.0200305
406 2 0.606064 0.620687 0.00491475
407 2 0.603828 0.628004 0.0149125
408 2 0.582986 0.632901 0.0159228
409 1 0.614154 0.571937 0.00894838
410 1 0.597085 0.589384 0.00862091
411 1 0.66388 0.5437 0.0220338
412 1 0.633157 0.594646 0.0173709
413 2 0.618222 0.529242 0.0271597
414 2 0.634724 0.594894 0.00519171
415 2 0.609462 0.58438 0.00838252
416 2 0.629904 0.581617 0.0179255
417 2 0.627068 0.60344 0.0201732
418 2 0.614915 0.590606 0.994314
419 2 0.631494 0.598664 0.0128203
420 2 0.596411 0.601442 0.00673982
421 1 0.644681 0.532106 0.0109434
422 1 0.61129 0.549987 0.017627
423 1 0.646854 0.499823 0.0168625
424 1 0.651332 0.55512 0.0148635
425 2 0.628464 0.473279 0.0210445
426 2 0.646913 0.544216 0.0127065
427 2 0.634179 0.527427 0.0135077
428 2 0.656342 0.504018 0.0139212
429 2 0.658163 0.551706 0.0188344
430 2 0.640658 0.532137 0.00637207
431 2 0.620255 0.559958 0.0177308
432 2 0.59782 0.539939 0.00774225
433 1 0.352761 0.802477 0.0113466
434 1 0.371335 0.802524 0.0167424
435 1 0.425784 0.771493 0.0216728
436 1 0.402996 0.804603 0.0218871
437 2 0.426609 0.775928 0.0261341
438 2 0.378913 0.81342 0.0171749
439 2 0.406593 0.79761 0.0179038
440 2 0.414145 0.80346 0.0246163
441 2 0.392824 0.799139 0.0243104
442 2 0.376025 0.795862 0.0127867
443 2 0.37421 0.794871 0.020564
444 2 0.358181 0.803955 0.0157409
445 1 0.42226 0.774931 0.00948633
446 1 0.417505 0.791514 0.0163024
447 1 0.485032 0.744496 0.0223696
448 1 0.449866 0.74295 0.0123437
449 2 0.461004 0.727812 0.0220204
450 2 0.447878 0.755207 0.0142656
451 2 0.437152 0.739089 0.0115748
452 2 0.458962 0.74355 0.00871132
453 2 0.455376 0.733132 0.014994
454 2 0.426554 0.778509 0.00514638
455 2 0.419518 0.780945 0.019206
456 2 0.417782 0.785381 0.0119993
457 1 0.462443 0.728092 0.999122
458 1 0.470458 0.739021 0.00671966
459 1 0.509835 0.720639 0.0250623
460 1 0.484426 0.730623 0.0143176
461 2 0.482511 0.701986 0.0278239
462 2 0.496836 0.725469 0.0140147
463 2 0.470561 0.728653 0.995136
464 2 0.529187 0.73846 0.0209974
465 2 0.486611 0.739837 0.0178611
466 2 0.46561 0.765463 0.991777
467 2 0.479142 0.735572 0.0102242
468 2 0.466826 0.729622 0.00350219
469 1 0.563102 0.596121 0.00185783
470 1 0.561407 0.594087 0.011188
471 1 0.591064 0.582319 0.0216295
472 1 0.583529 0.599247 0.0159664
473 2 0.587246 0.552147 0.0247148
474 2 0.588564 0.611513 0.016242
475 2 0.563293 0.597899 0.00665015
476 2 0.583601 0.592527 0.0201689
477 2 0.53916 0.576117 0.00833257
478 2 0.575369 0.596766 -6.49181e-05
479 2 0.571249 0.598345 0.0139529
480 2 0.548201 0.593951 0.0124711
481 1 0.591987 0.543928 0.00364082
482 1 0.583665 0.567409 0.00647444
483 1 0.613073 0.52919 0.0227091
484 1 0.59346 0.564558 0.0145648
485 2 0.595821 0.506654 0.0185224
486 2 0.60412 0.567306 0.0117287
487 2 0.591008 0.530879 0.0140038
488 2 0.59893 0.554706 0.0171099
489 2 0.591368 0.573669 0.0179554
490 2 0.601109 0.541807 0.000258651
491 2 0.58975 0.579472 0.00663952
492 2 0.589271 0.556926 0.0042217
493 1 0.606575 0.491375 0.00553365
494 1 0.60247 0.533278 0.011535
495 1 0.619276 0.469701 0.0242448
496 1 0.631563 0.5215 0.0176418
497 2 0.589471 0.473475 0.0216304
498 2 0.611125 0.541094 0.0139465
499 2 0.624452 0.492801 0.0211663
500 2 0.637661 0.509763 0.0172215
501 2 0.619159 0.521488 0.0194054
502 2 0.612611 0.50147 0.00777341
503 2 0.612799 0.541827 0.0213713
504 2 0.608739 0.522443 0.0098312
505 1 0.350416 0.776107 0.0113646
506 1 0.334426 0.763447 0.011462
507 1 0.390428 0.768904 0.0188637
508 1 0.383321 0.790045 0.0236185
509 2 0.383773 0.761339 0.0220614
510 2 0.340716 0.771962 0.0145051
511 2 0.36162 0.769425 0.0121659
512 2 0.390368 0.780371 0.0212859
513 2 0.377311 0.785099 0.0275622
514 2 0.353071 0.788852 0.0107738
515 2 0.321161 0.762929 0.0114327
516 2 0.342404 0.769577 0.00810221
517 1 0.387235 0.754318 0.00565258
518 1 0.373033 0.762871 0.0126621
519 1 0.461397 0.723336 0.0174719
520 1 0.41104 0.752914 0.0187385
521 2 0.424961 0.70595 0.0322
522 2 0.401581 0.762165 0.0176299
523 2 0.418665 0.747137 0.0152894
524 2 0.419094 0.759951 0.0216001
525 2 0.404642 0.742666 0.0207183
526 2 0.398349 0.750004 0.00780858
527 2 0.38237 0.769726 0.0150521
528 2 0.377935 0.759254 0.00843179
529 1 0.425313 0.726273 0.997698
530 1 0.423837 0.738609 0.0119001
531 1 0.46925 0.705401 0.0279675
532 1 0.430663 0.702527 0.998397
533 2 0.440929 0.699478 0.0206157
534 2 0.440414 0.70456 0.995195
535 2 0.426937 0.738762 0.999138
536 2 0.456522 0.711137 0.0174993
537 2 0.419029 0.726372 0.012834
538 2 0.43397 0.724088 0.994074
539 2 0.429137 0.715158 1.0001
540 2 0.418908 0.743842 0.00786088
541 1 0.539219 0.565719 0.00521211
542 1 0.540809 0.564197 0.0193936
543 1 0.576647 0.547013 0.0226334
544 1 0.546013 0.580561 0.0121967
545 2 0.553501 0.527112 0.0222472
546 2 0.591721 0.592077 0.0129938
547 2 0.548849 0.539516 0.0069496
548 2 0.566577 0.555301 0.0235588
549 2 0.542686 0.573996 0.0162322
550 2 0.552083 0.5645 0.0042108
551 2 0.559493 0.580479 0.0113454
552 2 0.534458 0.555294 0.00765681
553 1 0.575836 0.523609 0.0015014
554 1 0.55968 0.532422 0.00859338
555 1 0.590972 0.499529 0.0149606
556 1 0.578176 0.533277 0.0151215
557 2 0.565495 0.476664 0.0177926
558 2 0.583845 0.563785 0.0112194
559 2 0.579497 0.511674 0.00386138
560 2 0.587247 0.505958 0.0109995
561 2 0.577768 0.544027 0.0180132
562 2 0.587559 0.520885 0.998162
563 2 0.570024 0.535978 0.0114201
564 2 0.565002 0.525689 0.00501959
565 1 0.584009 0.475734 0.999359
566 1 0.582679 0.501836 0.00673819
567 1 0.597441 0.4646 0.019355
568 1 0.607202 0.479131 0.0128136
569 2 0.578095 0.435581 0.02107
570 2 0.593415 0.494535 0.00521749
571 2 0.607617 0.480068 0.0080074
572 2 0.608878 0.464729 0.0219399
573 2 0.599727 0.489801 0.0139744
574 2 0.594865 0.482774 0.998012
575 2 0.57239 0.493276 0.00736149
576 2 0.574289 0.484355 0.000753182
577 1 0.341529 0.740458 0.00885974
578 1 0.295596 0.743468 0.00875409
579 1 0.375999 0.75528 0.0253025
580 1 0.310803 0.757122 0.0136207
581 2 0.3704 0.764672 0.0281286
582 2 0.299538 0.754332 0.0113148
583 2 0.344984 0.728745 0.0108111
584 2 0.33861 0.750797 0.0117095
585 2 0.31098 0.760559 0.0183661
586 2 0.350875 0.745014 0.00579776
587 2 0.315022 0.745028 0.0154369
588 2 0.330827 0.737604 0.00609759
589 1 0.373582 0.713608 0.00835633
590 1 0.349467 0.716627 0.0121364
591 1 0.396987 0.731671 0.0206175
592 1 0.372916 0.741449 0.0182727
593 2 0.396362 0.710318 0.0300644
594 2 0.372245 0.751282 0.0150777
595 2 0.383619 0.708242 0.0108269
596 2 0.38507 0.73589 0.0189052
597 2 0.369116 0.746926 0.0225228
598 2 0.377357 0.724878 0.00620798
599 2 0.364333 0.73195 0.0171476
600 2 0.36206 0.714861 0.0106736
601 1 0.413243 0.694566 0.00059366
602 1 0.394384 0.700371 0.0114658
603 1 0.428354 0.703437 0.0214292
604 1 0.41253 0.716306 0.0150705
605 2 0.412991 0.675524 0.0270867
606 2 0.426183 0.694892 0.00209059
607 2 0.419086 0.698128 0.996288
608 2 0.42133 0.709724 0.0179076
609 2 0.403186 0.722698 0.0177792
610 2 0.40603 0.705856 0.00123958
611 2 0.405363 0.707854 0.0122696
612 2 0.394587 0.692367 0.00752725
613 1 0.5358 0.542427 0.00634987
614 1 0.522157 0.529332 0.0127362
615 1 0.543366 0.533545 0.0244249
616 1 0.529953 0.546899 0.018479
617 2 0.537067 0.497462 0.0173092
618 2 0.542139 0.552043 0.0170858
619 2 0.532394 0.520891 0.013787
620 2 0.533468 0.538007 0.0217466
621 2 0.528072 0.559514 0.0200856
622 2 0.532231 0.54295 0.00169315
623 2 0.521991 0.540089 0.0156273
624 2 0.526985 0.535046 0.00872851
625 1 0.534511 0.512188 0.00202553
626 1 0.542381 0.516295 0.0109817
627 1 0.553576 0.472267 0.0161133
628 1 0.548726 0.495439 0.0151362
629 2 0.545223 0.473953 0.019923
630 2 0.552487 0.524512 0.0115107
631 2 0.553319 0.489592 0.00335197
632 2 0.550042 0.482876 0.0134222
633 2 0.559157 0.496349 0.0181327
634 2 0.544916 0.51516 0.999188
635 2 0.547634 0.504317 0.0116975
636 2 0.53739 0.516056 0.00649666
637 1 0.570419 0.460469 0.00468252
638 1 0.565393 0.485326 0.00445206
639 1 0.565752 0.431735 0.0195888
640 1 0.560067 0.448882 0.0121756
641 2 0.560313 0.419525 0.0182609
642 2 0.569155 0.453224 0.00882059
643 2 0.563677 0.453828 0.00113818
644 2 0.563044 0.44021 0.0158086
645 2 0.601044 0.468879 0.0149806
646 2 0.581854 0.465799 0.00267257
647 2 0.554917 0.460136 0.0142229
648 2 0.564262 0.472251 0.00565696
649 1 0.313152 0.711376 0.0106265
650 1 0.296576 0.723426 0.0153206
651 1 0.335157 0.736611 0.0233334
652 1 0.315558 0.748871 0.0201662
653 2 0.328744 0.718501 0.0294198
654 2 0.296891 0.733195 0.0119201
655 2 0.322348 0.701755 0.0103224
656 2 0.328 0.74667 0.0215633
657 2 0.307331 0.742478 0.0231032
658 2 0.317874 0.72096 0.00766968
659 2 0.295448 0.727662 0.0199165
660 2 0.308162 0.716581 0.0147312
661 1 0.334366 0.69609 0.00953459
662 1 0.326782 0.680948 0.0152749
663 1 0.390638 0.699215 0.0284431
664 1 0.356086 0.724925 0.0199255
665 2 0.360133 0.698146 0.0234636
666 2 0.349689 0.716426 0.0169676
667 2 0.356946 0.690723 0.00778248
668 2 0.363871 0.718684 0.0231363
669 2 0.347223 0.733352 0.0218018
670 2 0.342225 0.706928 0.0100362
671 2 0.328264 0.725126 0.0224329
672 2 0.33654 0.688124 0.0133843
673 1 0.38194 0.670153 0.0103105
674 1 0.360459 0.68398 0.0118498
675 1 0.410046 0.685096 0.0238398
676 1 0.393492 0.679794 0.0172085
677 2 0.362778 0.677438 0.0225114
678 2 0.392999 0.692063 0.0152474
679 2 0.373009 0.660385 0.0114239
680 2 0.399786 0.6925 0.0257853
681 2 0.382905 0.676481 0.0199477
682 2 0.38795 0.672575 0.00608379
683 2 0.404438 0.679658 0.0199149
684 2 0.391721 0.671213 0.0135619
685 1 0.487929 0.509359 0.998711
686 1 0.486882 0.502696 0.00710414
687 1 0.524031 0.496027 0.0175318
688 1 0.506725 0.508717 0.0127187
689 2 0.512517 0.500771 0.029587
690 2 0.51153 0.521251 0.0126061
691 2 0.487941 0.491416 0.00446694
692 2 0.517562 0.50089 0.0136404
693 2 0.499006 0.504479 0.0163728
694 2 0.50047 0.513762 0.999166
695 2 0.498861 0.505996 0.0089456
696 2 0.483505 0.510239 0.00327028
697 1 0.529956 0.467788 0.00783238
698 1 0.479433 0.483428 0.00222805
699 1 0.530507 0.450765 0.0225369
700 1 0.522749 0.469751 0.0167013
701 2 0.503511 0.429431 0.0236527
702 2 0.530134 0.467918 0.0126966
703 2 0.533939 0.45523 0.00668339
704 2 0.527054 0.461747 0.020178
705 2 0.522483 0.482765 0.0176004
706 2 0.535999 0.477736 0.00550635
707 2 0.497574 0.471748 0.00997019
708 2 0.480502 0.475041 0.998497
709 1 0.550969 0.438875 0.989631
710 1 0.53759 0.443005 0.0079864
711 1 0.547766 0.414436 0.0190793
712 1 0.531296 0.432623 0.0162218
713 2 0.523031 0.390176 0.0180174
714 2 0.550216 0.443347 0.00942428
715 2 0.556225 0.442116 0.985399
716 2 0.539903 0.422496 0.0164406
717 2 0.535216 0.441925 0.0193149
718 2 0.556214 0.444354 0.993735
719 2 0.531045 0.438719 0.0118951
720 2 0.545303 0.441266 0.000302018
721 1 0.292579 0.681909 0.00488692
722 1 0.272167 0.715958 0.0131404
723 1 0.321572 0.716415 0.0252876
724 1 0.300406 0.731328 0.0242656
725 2 0.301324 0.690573 0.0227662
726 2 0.285393 0.716538 0.0141652
727 2 0.300596 0.678716 0.00862757
728 2 0.3096 0.722129 0.0254407
729 2 0.293119 0.731957 0.0283289
730 2 0.299959 0.680026 0.000802356
731 2 0.26762 0.712164 0.0174837
732 2 0.288687 0.694747 0.00477512
733 1 0.319957 0.655047 0.00484365
734 1 0.308876 0.670285 0.0107375
735 1 0.355474 0.687993 0.0209236
736 1 0.314589 0.692022 0.0223862
737 2 0.321988 0.683212 0.0249521
738 2 0.320588 0.676645 0.011236
739 2 0.32488 0.666889 0.00314829
740 2 0.358708 0.689555 0.0162175
741 2 0.318622 0.688531 0.0179153
742 2 0.311363 0.670051 0.99454
743 2 0.32819 0.669251 0.0176288
744 2 0.310629 0.659517 0.00794224
745 1 0.346009 0.637469 0.99988
746 1 0.34234 0.644024 0.00860844
747 1 0.361537 0.650668 0.022084
748 1 0.360098 0.658796 0.0128505
749 2 0.341263 0.631156 0.0250094
750 2 0.373448 0.680789 0.0109955
751 2 0.345968 0.63699 0.00472144
752 2 0.358991 0.653666 0.0174653
753 2 0.355672 0.671508 0.0126106
754 2 0.357683 0.636482 0.99763
755 2 0.352395 0.652005 0.0098254
756 2 0.330697 0.64983 0.00714488
757 1 0.471054 0.466612 0.00887771
758 1 0.461521 0.478466 0.016133
759 1 0.492247 0.495101 0.0188712
760 1 0.470507 0.501787 0.0148791
761 2 0.455039 0.457609 0.0239688
762 2 0.47804 0.500953 0.0106675
763 2 0.477025 0.455055 0.0100628
764 2 0.479555 0.497827 0.0183009
765 2 0.465821 0.513491 0.0153927
766 2 0.476554 0.47438 0.00560764
767 2 0.461733 0.491431 0.0152415
768 2 0.470265 0.473311 0.0129931
769 1 0.500092 0.44362 0.00607892
770 1 0.485827 0.449584 0.0131796
771 1 0.491257 0.424401 0.0238097
772 1 0.497269 0.470795 0.0148856
773 2 0.491999 0.412913 0.026278
774 2 0.509822 0.467118 0.0159365
775 2 0.510826 0.435657 0.0057693
776 2 0.489554 0.460051 0.0158866
777 2 0.494705 0.482681 0.0169599
778 2 0.501694 0.456007 0.00453358
779 2 0.497974 0.495646 0.0232675
780 2 0.496821 0.446254 0.0106597
781 1 0.521983 0.407178 0.991598
782 1 0.52006 0.426104 0.00601815
783 1 0.510872 0.393171 0.0160135
784 1 0.511521 0.419128 0.0143208
785 2 0.492527 0.370273 0.0291633
786 2 0.519164 0.427459 0.0168871
787 2 0.515434 0.403576 0.987674
788 2 0.510542 0.406696 0.0158804
789 2 0.499365 0.423704 0.0133555
790 2 0.535546 0.40604 0.992076
791 2 0.518353 0.419505 0.0100762
792 2 0.520055 0.417029 0.0025146
793 1 0.251727 0.681837 0.00349025
794 1 0.257858 0.695802 0.0113724
795 1 0.288407 0.686361 0.0227372
796 1 0.267755 0.699934 0.0194949
797 2 0.283928 0.685164 0.027344
798 2 0.265904 0.706294 0.0105445
799 2 0.241942 0.673931 0.00514576
800 2 0.279767 0.695312 0.0208333
801 2 0.258657 0.69944 0.0229844
802 2 0.282406 0.673463 0.00570734
803 2 0.264132 0.692102 0.0156056
804 2 0.256218 0.689282 0.00715984
805 1 0.270488 0.640492 0.00528705
806 1 0.275962 0.664927 0.00865144
807 1 0.318239 0.660176 0.0181249
808 1 0.285225 0.663591 0.0176122
809 2 0.301051 0.642893 0.0245947
810 2 0.283526 0.664423 0.0127644
811 2 0.279506 0.632373 0.00744087
812 2 0.308656 0.665924 0.015361
813 2 0.288088 0.674985 0.0200282
814 2 0.297077 0.629195 0.00293507
815 2 0.254219 0.657562 0.0166687
816 2 0.274221 0.652975 0.00644257
817 1 0.314865 0.611023 0.00191276
818 1 0.290102 0.624723 0.00687043
819 1 0.328442 0.628807 0.0240276
820 1 0.327188 0.636477 0.0150075
821 2 0.321565 0.639351 0.0258767
822 2 0.338905 0.638205 0.0127926
823 2 0.325786 0.609353 0.999194
824 2 0.327401 0.629923 0.0192197
825 2 0.322043 0.648511 0.0161406
826 2 0.315316 0.624109 0.999651
827 2 0.300007 0.624885 0.00998795
828 2 0.315033 0.613182 0.00664402
829 1 0.440812 0.438782 0.0123645
830 1 0.42819 0.449297 0.0189543
831 1 0.449428 0.445513 0.0241804
832 1 0.441207 0.463497 0.0133718
833 2 0.417314 0.432366 0.02994
834 2 0.449668 0.472436 0.0151185
835 2 0.449877 0.430336 0.0139578
836 2 0.436957 0.446814 0.0225132
837 2 0.438165 0.464704 0.00863766
838 2 0.446405 0.450946 0.0129898
839 2 0.431426 0.460509 0.0165365
840 2 0.430755 0.439703 0.0156415
841 1 0.478511 0.405236 0.00938137
842 1 0.455681 0.426248 0.0180849
843 1 0.476395 0.410857 0.0187996
844 1 0.485945 0.424515 0.0137401
845 2 0.437861 0.396488 0.0303866
846 2 0.482136 0.437398 0.0146346
847 2 0.471557 0.395135 0.011487
848 2 0.481604 0.411263 0.0137355
849 2 0.486395 0.420818 0.0194107
850 2 0.481775 0.423528 0.00865617
851 2 0.455771 0.436794 0.0212126
852 2 0.466498 0.419345 0.0170102
853 1 0.501411 0.391667 0.00699225
854 1 0.473513 0.381972 0.0117183
855 1 0.481853 0.36857 0.0262347
856 1 0.487277 0.386112 0.0192599
857 2 0.479324 0.357954 0.0232932
858 2 0.482815 0.380427 0.0151414
859 2 0.507868 0.39036 0.0112806
860 2 0.483435 0.378676 0.0230431
861 2 0.481176 0.39813 0.019467
862 2 0.490434 0.399838 0.00783916
863 2 0.462574 0.375581 0.0127732
864 2 0.477127 0.379019 0.00725465
865 1 0.23483 0.663943 0.00712472
866 1 0.239215 0.687248 0.0159349
867 1 0.250779 0.669319 0.0276655
868 1 0.248264 0.692555 0.0247697
869 2 0.237934 0.668687 0.026321
870 2 0.245318 0.69663 0.0132025
871 2 0.235077 0.636368 0.00655728
872 2 0.254123 0.681898 0.026835
873 2 0.239733 0.696354 0.0282439
874 2 0.229705 0.655493 0.00395264
875 2 0.241812 0.689355 0.0206147
876 2 0.22667 0.667524 0.0106784
877 1 0.254633 0.611073 0.00303138
878 1 0.24667 0.631341 0.00809148
879 1 0.294052 0.640753 0.0205828
880 1 0.252348 0.665046 0.012817
881 2 0.266141 0.620358 0.0209531