ITEM: TIMESTEP
230047
ITEM: NUMBER OF ATOMS
81498
ITEM: BOX BOUNDS pp pp pp
-2.3656136555423494e+01 1.2536069655599786e+02
-4.9082843469642086e+01 9.9935116469642082e+01
1.2010159105250295e+00 3.3243209708946893e+02
ITEM: ATOMS id type xs ys zs
1 1 0.676542 0.863002 0.0340956
2 1 0.68624 0.869521 0.0499884
3 1 0.732836 0.839171 0.0446431
4 1 0.702552 0.856609 0.0506154
5 2 0.714454 0.840546 0.0548548
6 3 0.692328 0.846525 0.0371095
7 2 0.681369 0.854103 0.0360234
8 2 0.723483 0.844384 0.0439862
9 2 0.709057 0.856825 0.0545416
10 2 0.682808 0.866919 0.0305717
11 2 0.695711 0.864621 0.0496912
12 2 0.686118 0.873953 0.0545121
13 1 0.709599 0.849107 0.0276443
14 1 0.702727 0.843448 0.0360689
15 1 0.768836 0.823824 0.0361004
16 1 0.740543 0.838028 0.0361031
17 2 0.735992 0.818189 0.050751
18 2 0.734326 0.844859 0.0335419
19 2 0.720317 0.8496 0.0284428
20 2 0.773154 0.815011 0.0343087
21 2 0.73952 0.839862 0.0408526
22 2 0.708311 0.839512 0.0254799
23 2 0.735631 0.828255 0.0355531
24 2 0.705368 0.848682 0.0320836
25 1 0.732361 0.830438 0.0232277
26 1 0.727949 0.842803 0.0297535
27 1 0.771309 0.80445 0.0341846
28 1 0.756938 0.830269 0.0319174
29 2 0.761514 0.802189 0.032382
30 2 0.757984 0.822529 0.0354273
31 2 0.738693 0.822777 0.0250916
32 2 0.749942 0.837152 0.0338005
33 2 0.767528 0.832104 0.0330084
34 2 0.734101 0.830272 0.0185235
35 2 0.754353 0.825356 0.0278152
36 2 0.733618 0.839273 0.0259555
37 1 0.753244 0.806561 0.0175973
38 1 0.748164 0.817632 0.0255839
39 1 0.789953 0.776712 0.03231
40 1 0.782576 0.79031 0.0298581
41 2 0.772342 0.77193 0.0395875
42 2 0.792704 0.786578 0.0305845
43 2 0.728497 0.813643 0.0177424
44 2 0.779751 0.78117 0.0323943
45 2 0.779023 0.799054 0.0319085
46 2 0.742836 0.81502 0.00562819
47 2 0.777511 0.788108 0.0257904
48 2 0.751351 0.813434 0.021285
49 1 0.759373 0.791167 0.0180154
50 1 0.770064 0.780477 0.0247261
51 1 0.787313 0.731493 0.0307423
52 1 0.782873 0.764235 0.0260576
53 2 0.772825 0.738148 0.0410487
54 2 0.785518 0.755665 0.0232836
55 2 0.763972 0.784867 0.0212804
56 2 0.787475 0.740417 0.0280261
57 2 0.790012 0.769577 0.0287706
58 2 0.758331 0.785161 0.0140781
59 2 0.776054 0.771362 0.0241597
60 2 0.763024 0.801408 0.0175774
61 1 0.748734 0.749934 0.019499
62 1 0.761644 0.7409 0.0260773
63 1 0.77877 0.713486 0.0289259
64 1 0.78119 0.747896 0.0261496
65 2 0.768841 0.705166 0.0367809
66 2 0.771801 0.743633 0.024897
67 2 0.749044 0.74109 0.0165911
68 2 0.768077 0.713222 0.0302863
69 2 0.783062 0.72317 0.0282693
70 2 0.752963 0.75815 0.0169098
71 2 0.778842 0.756488 0.0290766
72 2 0.754529 0.746323 0.0232575
73 1 0.751411 0.731293 0.0151639
74 1 0.75818 0.721111 0.0228929
75 1 0.764857 0.68511 0.0244684
76 1 0.770926 0.704083 0.0222887
77 2 0.755858 0.678266 0.0347109
78 2 0.773982 0.698758 0.0182587
79 2 0.740949 0.710593 0.0155341
80 2 0.766082 0.695992 0.0246818
81 2 0.779205 0.707265 0.0250528
82 2 0.754846 0.730583 0.0105753
83 2 0.764788 0.712897 0.0219722
84 2 0.755953 0.725352 0.0184409
85 1 0.740331 0.699834 0.0145762
86 1 0.745481 0.688882 0.0219262
87 1 0.756385 0.658208 0.0332089
88 1 0.776133 0.688645 0.0171202
89 2 0.747642 0.665564 0.0441313
90 2 0.781588 0.685532 0.0137197
91 2 0.736508 0.682916 0.0221436
92 2 0.764112 0.66474 0.0315495
93 2 0.771657 0.683228 0.0206844
94 2 0.740804 0.698519 0.00979816
95 2 0.754656 0.683694 0.0230237
96 2 0.746366 0.694311 0.0177187
97 1 0.715019 0.665159 0.022235
98 1 0.729301 0.679297 0.0253932
99 1 0.748431 0.641846 0.0364178
100 1 0.737252 0.666523 0.0320729
101 2 0.720849 0.624846 0.0425903
102 2 0.755047 0.647455 0.0334618
103 2 0.717534 0.658344 0.026504
104 2 0.747763 0.648648 0.0404134
105 2 0.746704 0.661439 0.0315423
106 2 0.720919 0.673362 0.0241611
107 2 0.728928 0.65989 0.0324676
108 2 0.724269 0.687755 0.0274045
109 1 0.69353 0.644793 0.0308084
110 1 0.7114 0.662713 0.0384598
111 1 0.717967 0.62255 0.0379694
112 1 0.728078 0.638266 0.0344321
113 2 0.701748 0.611564 0.0533429
114 2 0.723071 0.644186 0.0310273
115 2 0.676678 0.624256 0.0421553
116 2 0.724661 0.628097 0.0349975
117 2 0.738768 0.639731 0.0345637
118 2 0.698233 0.641871 0.019055
119 2 0.72418 0.642852 0.038506
120 2 0.701222 0.644335 0.0272943
121 1 0.644073 0.86867 0.0419046
122 1 0.659523 0.855678 0.0442562
123 1 0.716791 0.850613 0.0564159
124 1 0.679116 0.866911 0.0565622
125 2 0.703622 0.845084 0.0696925
126 2 0.67868 0.862669 0.0519949
127 2 0.681356 0.873738 0.0461333
128 2 0.696171 0.847724 0.0514927
129 2 0.682349 0.858921 0.0594564
130 2 0.666358 0.864104 0.0440593
131 2 0.670087 0.872131 0.0576531
132 2 0.649705 0.859984 0.0435559
133 1 0.675883 0.830429 0.0324203
134 1 0.676065 0.867821 0.0427886
135 1 0.731302 0.817614 0.0462513
136 1 0.712915 0.846413 0.0444225
137 2 0.732417 0.833708 0.0542216
138 2 0.708681 0.845766 0.03999
139 2 0.703613 0.832788 0.0356935
140 2 0.73693 0.843596 0.0487412
141 2 0.709635 0.839178 0.0478042
142 2 0.682568 0.836565 0.0297631
143 2 0.709257 0.855099 0.0468291
144 2 0.675387 0.869499 0.0379727
145 1 0.689726 0.806251 0.0264926
146 1 0.707484 0.823884 0.0378444
147 1 0.748118 0.808914 0.041669
148 1 0.72603 0.82462 0.0340247
149 2 0.736964 0.79408 0.0496968
150 2 0.723311 0.833469 0.0314211
151 2 0.695026 0.805705 0.0306599
152 2 0.738994 0.813832 0.0432566
153 2 0.730541 0.828493 0.0454108
154 2 0.69552 0.812617 0.0235463
155 2 0.718372 0.824048 0.0374811
156 2 0.704586 0.814815 0.0356786
157 1 0.723672 0.805793 0.0294692
158 1 0.704191 0.805619 0.0331161
159 1 0.76188 0.775029 0.0399997
160 1 0.750623 0.802856 0.0324727
161 2 0.749465 0.783502 0.0477717
162 2 0.747789 0.809626 0.028887
163 2 0.728692 0.797519 0.0316886
164 2 0.748132 0.806557 0.0369585
165 2 0.756944 0.8143 0.0434794
166 2 0.725364 0.805384 0.024687
167 2 0.745205 0.793497 0.0320362
168 2 0.726296 0.815288 0.0316513
169 1 0.736444 0.770685 0.0284496
170 1 0.735342 0.789177 0.0327216
171 1 0.767393 0.747368 0.0420049
172 1 0.756743 0.771717 0.0309986
173 2 0.744371 0.749189 0.0486577
174 2 0.763408 0.777779 0.0283781
175 2 0.734785 0.762055 0.0313311
176 2 0.759446 0.761272 0.0313351
177 2 0.756642 0.774238 0.0357881
178 2 0.723109 0.79675 0.0174599
179 2 0.747203 0.771848 0.0287508
180 2 0.733083 0.78032 0.0300835
181 1 0.714456 0.745005 0.0230337
182 1 0.736249 0.752995 0.0338766
183 1 0.761131 0.708488 0.0335312
184 1 0.757541 0.752113 0.03378
185 2 0.740047 0.718214 0.0481893
186 2 0.759535 0.744203 0.0305795
187 2 0.734755 0.743551 0.0316044
188 2 0.761588 0.730718 0.0367768
189 2 0.763339 0.751189 0.0378602
190 2 0.722574 0.751995 0.0238319
191 2 0.746935 0.75268 0.0349726
192 2 0.705026 0.750112 0.0240483
193 1 0.73852 0.720373 0.0248599
194 1 0.734677 0.73287 0.0324436
195 1 0.746031 0.681247 0.0361552
196 1 0.751983 0.72566 0.0371714
197 2 0.732245 0.69447 0.0437234
198 2 0.76084 0.730182 0.0253346
199 2 0.748952 0.717782 0.0250288
200 2 0.753937 0.701648 0.0317462
201 2 0.754694 0.716045 0.0353779
202 2 0.73827 0.725188 0.0203752
203 2 0.743706 0.730281 0.0348796
204 2 0.73537 0.726952 0.0283489
205 1 0.71443 0.691727 0.028418
206 1 0.725511 0.702249 0.0340229
207 1 0.741861 0.668869 0.0479311
208 1 0.744219 0.697729 0.0304073
209 2 0.724427 0.654817 0.0534706
210 2 0.744265 0.695896 0.0256404
211 2 0.708885 0.685133 0.0313671
212 2 0.737896 0.678543 0.0468117
213 2 0.743338 0.688428 0.0327767
214 2 0.718573 0.702837 0.0200155
215 2 0.735345 0.702884 0.0319921
216 2 0.717504 0.700907 0.0307677
217 1 0.688215 0.664424 0.0342338
218 1 0.704639 0.679273 0.0349152
219 1 0.717346 0.646024 0.0419855
220 1 0.720055 0.654572 0.030937
221 2 0.723485 0.640796 0.0639842
222 2 0.735062 0.67319 0.0284256
223 2 0.702166 0.664528 0.0408445
224 2 0.717025 0.656798 0.0416522
225 2 0.739153 0.672953 0.0358847
226 2 0.695969 0.672599 0.0337373
227 2 0.712512 0.65678 0.03433
228 2 0.701702 0.686054 0.0385296
229 1 0.666482 0.627721 0.0420547
230 1 0.685734 0.626454 0.0447118
231 1 0.693549 0.618113 0.0518918
232 1 0.700847 0.634554 0.038708
233 2 0.680345 0.608811 0.07053
234 2 0.696187 0.638901 0.0347487
235 2 0.667614 0.637064 0.0446569
236 2 0.688359 0.618013 0.0476258
237 2 0.707438 0.642091 0.0408116
238 2 0.668761 0.635804 0.0256934
239 2 0.693585 0.630335 0.0418363
240 2 0.691989 0.654978 0.0325223
241 1 0.62404 0.862249 0.0431115
242 1 0.646295 0.874141 0.0503232
243 1 0.681177 0.849744 0.0620203
244 1 0.659666 0.873443 0.0568311
245 2 0.687751 0.849086 0.0658467
246 2 0.652916 0.880446 0.0591982
247 2 0.666237 0.846421 0.0559129
248 2 0.670563 0.849758 0.0631239
249 2 0.655325 0.864073 0.0582319
250 2 0.633297 0.867729 0.0421534
251 2 0.656374 0.874205 0.0521911
252 2 0.646146 0.875764 0.0455573
253 1 0.66686 0.840077 0.0396513
254 1 0.668407 0.843318 0.0513295
255 1 0.70812 0.834095 0.0521495
256 1 0.68933 0.841365 0.048902
257 2 0.692482 0.825245 0.0615645
258 2 0.682532 0.859063 0.0429473
259 2 0.661435 0.849144 0.0404454
260 2 0.693238 0.831176 0.0484571
261 2 0.682364 0.839564 0.0601237
262 2 0.669586 0.836596 0.0352636
263 2 0.67905 0.842315 0.0503285
264 2 0.66272 0.849531 0.0481181
265 1 0.674462 0.813402 0.0378217
266 1 0.684817 0.849476 0.0408427
267 1 0.715143 0.803044 0.0475762
268 1 0.699809 0.823003 0.0468269
269 2 0.700004 0.798638 0.0580724
270 2 0.703824 0.824253 0.0423878
271 2 0.680376 0.810335 0.0417128
272 2 0.70836 0.804965 0.0512848
273 2 0.707958 0.824157 0.0500484
274 2 0.672179 0.806461 0.0342455
275 2 0.693798 0.814123 0.046611
276 2 0.678619 0.822257 0.0354822
277 1 0.685463 0.786626 0.0472682
278 1 0.684931 0.808072 0.0460607
279 1 0.728462 0.787401 0.0494606
280 1 0.708667 0.792096 0.0400392
281 2 0.737278 0.767318 0.0579906
282 2 0.70534 0.797375 0.036147
283 2 0.678606 0.786006 0.0510698
284 2 0.71794 0.78664 0.0395591
285 2 0.710323 0.799726 0.043489
286 2 0.666709 0.795223 0.0280493
287 2 0.701471 0.784615 0.0412572
288 2 0.686332 0.797286 0.0465403
289 1 0.695315 0.777049 0.0432288
290 1 0.67558 0.788434 0.0554065
291 1 0.737001 0.757143 0.0488549
292 1 0.727099 0.781101 0.0403938
293 2 0.714018 0.755225 0.0551866
294 2 0.734158 0.785657 0.037334
295 2 0.698607 0.767466 0.0416411
296 2 0.726047 0.770465 0.0398307
297 2 0.729261 0.782603 0.0451266
298 2 0.667502 0.759655 0.024386
299 2 0.666359 0.792867 0.0563791
300 2 0.683391 0.790488 0.0583786
301 1 0.702546 0.746662 0.0349047
302 1 0.704091 0.758917 0.0399224
303 1 0.72946 0.717126 0.0491146
304 1 0.72475 0.759933 0.0410632
305 2 0.723829 0.727297 0.0611572
306 2 0.729415 0.753865 0.0376116
307 2 0.709338 0.738396 0.0354768
308 2 0.725476 0.730925 0.0348295
309 2 0.730484 0.757924 0.0450423
310 2 0.698638 0.74952 0.0393546
311 2 0.714076 0.758638 0.0417107
312 2 0.706325 0.757101 0.0350615
313 1 0.70954 0.725141 0.0264823
314 1 0.71482 0.728908 0.035382
315 1 0.721977 0.694137 0.0421263
316 1 0.719327 0.714048 0.0410308
317 2 0.723405 0.690016 0.0521756
318 2 0.724777 0.710814 0.0370106
319 2 0.709899 0.699637 0.0523605
320 2 0.725856 0.707484 0.0505887
321 2 0.72463 0.71842 0.044766
322 2 0.712573 0.73545 0.025307
323 2 0.713281 0.721967 0.0390718
324 2 0.711844 0.724373 0.0311714
325 1 0.694869 0.688537 0.0421857
326 1 0.70196 0.692542 0.0509631
327 1 0.717412 0.663142 0.053723
328 1 0.718299 0.682011 0.0497094
329 2 0.701322 0.669715 0.0623037
330 2 0.723679 0.694026 0.037255
331 2 0.691656 0.678372 0.0432696
332 2 0.720772 0.672192 0.0513241
333 2 0.718467 0.685986 0.0450292
334 2 0.694681 0.703616 0.0244222
335 2 0.707845 0.683392 0.0509889
336 2 0.698565 0.693115 0.046311
337 1 0.662914 0.671483 0.0435561
338 1 0.692564 0.667595 0.0428096
339 1 0.696152 0.638668 0.0525988
340 1 0.697854 0.657766 0.0507225
341 2 0.687354 0.639693 0.0554056
342 2 0.712499 0.672699 0.0366261
343 2 0.66064 0.66415 0.0528674
344 2 0.696838 0.647219 0.049732
345 2 0.708092 0.660497 0.0515347
346 2 0.68641 0.664456 0.0390736
347 2 0.692949 0.66311 0.0471561
348 2 0.666129 0.681762 0.0440103
349 1 0.659625 0.629842 0.0550175
350 1 0.669731 0.660875 0.0505596
351 1 0.674019 0.611748 0.0668624
352 1 0.672718 0.639702 0.0488212
353 2 0.681379 0.612972 0.0778698
354 2 0.6821 0.634672 0.0476597
355 2 0.660251 0.634333 0.0660944
356 2 0.671841 0.622104 0.0658565
357 2 0.69714 0.628332 0.0513332
358 2 0.643426 0.633011 0.0359513
359 2 0.677285 0.665352 0.0533117
360 2 0.667624 0.634207 0.0523606
361 1 0.615251 0.884862 0.0507678
362 1 0.623052 0.882944 0.0595063
363 1 0.648577 0.859642 0.0614145
364 1 0.642102 0.87982 0.0587147
365 2 0.64477 0.849802 0.0705006
366 2 0.64128 0.880012 0.0538223
367 2 0.625695 0.860043 0.0479006
368 2 0.627878 0.86235 0.0653417
369 2 0.640457 0.869161 0.0603409
370 2 0.615709 0.891988 0.0470032
371 2 0.633641 0.88525 0.0604328
372 2 0.620156 0.886015 0.0550054
373 1 0.639778 0.837807 0.0515336
374 1 0.632623 0.857737 0.0513734
375 1 0.682551 0.828665 0.0604862
376 1 0.66267 0.845179 0.0604586
377 2 0.675411 0.825672 0.0639192
378 2 0.664321 0.833168 0.0515071
379 2 0.651306 0.821055 0.05433
380 2 0.662338 0.835179 0.0622351
381 2 0.652854 0.849232 0.060947
382 2 0.635392 0.836828 0.0422581
383 2 0.64097 0.864749 0.0511194
384 2 0.636601 0.847834 0.0506548
385 1 0.658071 0.821911 0.0424403
386 1 0.656027 0.826639 0.0507565
387 1 0.68985 0.798867 0.0598158
388 1 0.677715 0.813213 0.0547778
389 2 0.65824 0.803475 0.062132
390 2 0.691068 0.845511 0.0445142
391 2 0.647612 0.822459 0.0412941
392 2 0.684625 0.806587 0.0572152
393 2 0.679695 0.823091 0.0564749
394 2 0.662133 0.831955 0.0419624
395 2 0.679139 0.811087 0.0500518
396 2 0.658515 0.819827 0.0471842
397 1 0.664771 0.69191 0.0456764
398 1 0.667712 0.694724 0.0552273
399 1 0.691867 0.674662 0.0631619
400 1 0.68715 0.691612 0.0580127
401 2 0.674931 0.677817 0.0715434
402 2 0.693757 0.692202 0.0541016
403 2 0.658266 0.693145 0.0574369
404 2 0.69117 0.684655 0.0612199
405 2 0.68575 0.702 0.0594964
406 2 0.671888 0.698654 0.0435691
407 2 0.676801 0.689444 0.0566445
408 2 0.665956 0.692734 0.050491
409 1 0.651897 0.669152 0.0548122
410 1 0.648147 0.689841 0.0564653
411 1 0.682151 0.643123 0.0594164
412 1 0.683225 0.662173 0.0570225
413 2 0.669198 0.633461 0.0724878
414 2 0.669383 0.665259 0.0461656
415 2 0.653014 0.637503 0.0567034
416 2 0.678707 0.653043 0.0586212
417 2 0.692586 0.659324 0.0549181
418 2 0.650443 0.679913 0.0545834
419 2 0.684691 0.669095 0.0605341
420 2 0.643509 0.697223 0.0534431
421 1 0.627479 0.615049 0.0575575
422 1 0.645935 0.641402 0.05987
423 1 0.658215 0.611884 0.0727541
424 1 0.667469 0.629832 0.0631246
425 2 0.632727 0.611408 0.0771345
426 2 0.663234 0.625406 0.0591184
427 2 0.629089 0.609727 0.0618822
428 2 0.664417 0.608468 0.0689373
429 2 0.674598 0.63676 0.0612827
430 2 0.659423 0.621757 0.0446009
431 2 0.64994 0.65003 0.0620407
432 2 0.636712 0.644115 0.0575632
433 1 0.581876 0.871029 0.0627036
434 1 0.607837 0.880288 0.0657243
435 1 0.629259 0.865087 0.0700369
436 1 0.615431 0.877235 0.0741732
437 2 0.633715 0.847385 0.0787969
438 2 0.61515 0.884779 0.0627751
439 2 0.591384 0.866323 0.0620551
440 2 0.623675 0.873611 0.07143
441 2 0.618655 0.881156 0.078431
442 2 0.571359 0.86804 0.0551151
443 2 0.60981 0.881558 0.0704788
444 2 0.597078 0.882696 0.0657613
445 1 0.605471 0.844322 0.056741
446 1 0.601587 0.863617 0.0610142
447 1 0.665386 0.827828 0.0655377
448 1 0.630465 0.863091 0.0604245
449 2 0.650253 0.818153 0.0756215
450 2 0.624237 0.872139 0.0594571
451 2 0.638609 0.854013 0.0610954
452 2 0.6286 0.858605 0.0558987
453 2 0.642619 0.832778 0.0799316
454 2 0.610291 0.846101 0.0525467
455 2 0.602617 0.866791 0.0564334
456 2 0.603746 0.852166 0.0605849
457 1 0.644844 0.813156 0.0560567
458 1 0.639782 0.842863 0.0604858
459 1 0.652239 0.810968 0.0645456
460 1 0.660597 0.80196 0.0574087
461 2 0.648793 0.808118 0.0689776
462 2 0.667974 0.809459 0.0561155
463 2 0.643147 0.839019 0.0562252
464 2 0.645079 0.813569 0.060995
465 2 0.658805 0.819399 0.0653516
466 2 0.635083 0.814599 0.0539954
467 2 0.651066 0.804219 0.0553175
468 2 0.631977 0.830372 0.0513719
469 1 0.635201 0.700899 0.0507003
470 1 0.630826 0.685914 0.0619587
471 1 0.666278 0.682918 0.0736163
472 1 0.678968 0.709809 0.0585427
473 2 0.647401 0.663207 0.0740145
474 2 0.671216 0.704967 0.0561529
475 2 0.629421 0.675092 0.0615423
476 2 0.664079 0.691956 0.0716119
477 2 0.68031 0.719535 0.0590321
478 2 0.638754 0.699295 0.0461499
479 2 0.640362 0.688268 0.0598086
480 2 0.630454 0.710963 0.0510048
481 1 0.627443 0.648575 0.0559744
482 1 0.629124 0.664507 0.062466
483 1 0.659042 0.632418 0.0708292
484 1 0.649635 0.660354 0.0634374
485 2 0.63791 0.643291 0.0776456
486 2 0.651642 0.666261 0.0594532
487 2 0.620861 0.648644 0.0700365
488 2 0.642006 0.63381 0.062884
489 2 0.655707 0.662341 0.0673147
490 2 0.644104 0.665114 0.0519028
491 2 0.639028 0.662097 0.0641813
492 2 0.626807 0.657669 0.0587422
493 1 0.624222 0.613588 0.0660397
494 1 0.617011 0.642676 0.0663644
495 1 0.624643 0.605625 0.0749258
496 1 0.631895 0.630594 0.0633488
497 2 0.615468 0.605858 0.0776431
498 2 0.629093 0.625078 0.0593579
499 2 0.623442 0.608471 0.0702941
500 2 0.629658 0.622934 0.0666864
501 2 0.656007 0.622106 0.0715358
502 2 0.641276 0.61995 0.0467635
503 2 0.625662 0.639211 0.0639967
504 2 0.609545 0.648354 0.063899
505 1 0.590065 0.879498 0.0691388
506 1 0.59032 0.885096 0.0780524
507 1 0.626632 0.855376 0.078107
508 1 0.603671 0.895008 0.0834132
509 2 0.626973 0.876893 0.085187
510 2 0.599784 0.887458 0.0799858
511 2 0.592572 0.869391 0.0703901
512 2 0.613622 0.891008 0.0844224
513 2 0.60302 0.904438 0.081704
514 2 0.580032 0.87793 0.0666412
515 2 0.596908 0.892515 0.087175
516 2 0.589505 0.884596 0.0732218
517 1 0.603496 0.84661 0.0651402
518 1 0.592941 0.85869 0.0712899
519 1 0.642969 0.825875 0.0761754
520 1 0.606335 0.859871 0.0782366
521 2 0.621032 0.825421 0.0807864
522 2 0.607335 0.869765 0.0640652
523 2 0.613155 0.844894 0.0670137
524 2 0.615901 0.854877 0.0791457
525 2 0.60962 0.868689 0.0757624
526 2 0.596194 0.839839 0.0555557
527 2 0.598883 0.85596 0.0751708
528 2 0.598181 0.85407 0.0675767
529 1 0.608439 0.822594 0.0729729
530 1 0.61952 0.836939 0.0687589
531 1 0.652263 0.808526 0.0736046
532 1 0.640221 0.84023 0.0695187
533 2 0.624789 0.808413 0.0807051
534 2 0.641961 0.838458 0.064807
535 2 0.616747 0.816208 0.0742156
536 2 0.643925 0.832545 0.0723783
537 2 0.626415 0.857836 0.0733984
538 2 0.620327 0.83004 0.0649574
539 2 0.629409 0.8399 0.0699307
540 2 0.629145 0.83936 0.0599943
541 1 0.5986 0.697614 0.0701341
542 1 0.609777 0.680728 0.0713683
543 1 0.638882 0.669139 0.0751243
544 1 0.628884 0.685027 0.0711981
545 2 0.631071 0.669244 0.0858731
546 2 0.630877 0.688793 0.0667076
547 2 0.587073 0.671798 0.0699211
548 2 0.636589 0.678339 0.0727084
549 2 0.624502 0.690095 0.0752383
550 2 0.622583 0.690143 0.0593176
551 2 0.619995 0.679045 0.0702164
552 2 0.606956 0.690653 0.0697162
553 1 0.602778 0.65482 0.0614783
554 1 0.59587 0.665858 0.0686288
555 1 0.628262 0.643034 0.0796787
556 1 0.62222 0.65931 0.070928
557 2 0.607175 0.634369 0.0818832
558 2 0.622726 0.662498 0.0662837
559 2 0.612425 0.633615 0.0679818
560 2 0.620815 0.6503 0.0787755
561 2 0.630444 0.662939 0.0736507
562 2 0.60628 0.657603 0.0570643
563 2 0.602951 0.673393 0.0699652
564 2 0.599634 0.663441 0.0641326
565 1 0.587321 0.628333 0.0672034
566 1 0.605296 0.630064 0.0711397
567 1 0.608475 0.609473 0.0810264
568 1 0.61394 0.628531 0.0792607
569 2 0.583474 0.610454 0.0923107
570 2 0.614319 0.615679 0.0642122
571 2 0.608392 0.604114 0.0852895
572 2 0.613999 0.619364 0.0822931
573 2 0.623295 0.633368 0.0789346
574 2 0.599162 0.61442 0.0596716
575 2 0.609929 0.625576 0.0750383
576 2 0.596763 0.625181 0.0692762
577 1 0.565636 0.878409 0.0757071
578 1 0.574958 0.891465 0.082302
579 1 0.618018 0.881594 0.0833684
580 1 0.589564 0.88546 0.0886517
581 2 0.616209 0.842437 0.0979477
582 2 0.58346 0.892749 0.0794471
583 2 0.570145 0.868714 0.0744791
584 2 0.586844 0.875095 0.0797519
585 2 0.572751 0.870817 0.0841541
586 2 0.567329 0.88358 0.0714781
587 2 0.568786 0.898999 0.0843609
588 2 0.569153 0.884883 0.0793151
589 1 0.562059 0.842058 0.0711152
590 1 0.573846 0.858268 0.0744707
591 1 0.617013 0.832824 0.0838025
592 1 0.601862 0.868925 0.0864055
593 2 0.612134 0.848767 0.0897283
594 2 0.582438 0.856602 0.0715048
595 2 0.561719 0.833584 0.0742878
596 2 0.601439 0.862543 0.0823808
597 2 0.610733 0.874418 0.0851754
598 2 0.568816 0.837062 0.0678515
599 2 0.602656 0.862425 0.0902319
600 2 0.566245 0.851314 0.072901
601 1 0.584108 0.833928 0.0763434
602 1 0.571161 0.842031 0.0816368
603 1 0.62401 0.817125 0.0778317
604 1 0.599613 0.82753 0.081103
605 2 0.61101 0.812345 0.0902646
606 2 0.61382 0.831997 0.0721794
607 2 0.590166 0.83164 0.080146
608 2 0.602636 0.822656 0.0770308
609 2 0.607279 0.835069 0.0819324
610 2 0.590506 0.835369 0.0724979
611 2 0.600828 0.821177 0.0849263
612 2 0.577071 0.841532 0.0775474
613 1 0.584956 0.682072 0.0687162
614 1 0.599377 0.698555 0.0793431
615 1 0.621025 0.672513 0.0847778
616 1 0.616941 0.688166 0.0787816
617 2 0.602761 0.680172 0.0930669
618 2 0.610045 0.681951 0.0761889
619 2 0.603793 0.65445 0.0794882
620 2 0.620867 0.682072 0.0823673
621 2 0.609736 0.695799 0.0801624
622 2 0.588914 0.681779 0.0641524
623 2 0.599033 0.701744 0.0747004
624 2 0.590518 0.690416 0.0704932
625 1 0.592425 0.645806 0.0718332
626 1 0.593556 0.651784 0.0802969
627 1 0.599499 0.636138 0.0852614
628 1 0.613493 0.658228 0.0785083
629 2 0.590424 0.646655 0.0933021
630 2 0.613992 0.66155 0.0739038
631 2 0.57291 0.639615 0.0775769
632 2 0.59345 0.644089 0.0836563
633 2 0.616527 0.665578 0.0817118
634 2 0.601289 0.639646 0.0726183
635 2 0.589274 0.647558 0.07636
636 2 0.574344 0.653884 0.0728134
637 1 0.568535 0.623206 0.0705687
638 1 0.57401 0.629175 0.0787247
639 1 0.576328 0.614035 0.0890066
640 1 0.589774 0.619201 0.0822569
641 2 0.573897 0.624306 0.0902833
642 2 0.584278 0.625155 0.0790255
643 2 0.56244 0.617228 0.0674771
644 2 0.582429 0.613911 0.0848991
645 2 0.598335 0.613268 0.080557
646 2 0.578837 0.623103 0.069025
647 2 0.594487 0.626552 0.085234
648 2 0.568999 0.622875 0.0754264
649 1 0.549331 0.883872 0.086296
650 1 0.547397 0.90903 0.0920451
651 1 0.605744 0.843513 0.0999881
652 1 0.560261 0.899559 0.0872037
653 2 0.581107 0.873231 0.0991224
654 2 0.555118 0.908396 0.0889093
655 2 0.558207 0.878181 0.0873617
656 2 0.580299 0.887295 0.0861717
657 2 0.561227 0.893755 0.0914071
658 2 0.552779 0.893684 0.0849445
659 2 0.55467 0.896528 0.0980874
660 2 0.542405 0.885856 0.089861
661 1 0.539343 0.858156 0.0819814
662 1 0.566498 0.871479 0.0881186
663 1 0.60251 0.851945 0.0914524
664 1 0.581781 0.866756 0.082211
665 2 0.577154 0.848693 0.100666
666 2 0.579151 0.859631 0.0787336
667 2 0.548152 0.85526 0.0844825
668 2 0.593894 0.87592 0.0872264
669 2 0.602219 0.849214 0.0960257
670 2 0.535796 0.849656 0.0796319
671 2 0.561973 0.861761 0.0881986
672 2 0.542165 0.865396 0.0786344
673 1 0.561866 0.822654 0.0832867
674 1 0.557911 0.853098 0.0859681
675 1 0.606118 0.82152 0.0891653
676 1 0.583621 0.850242 0.0881231
677 2 0.582619 0.821725 0.0921769
678 2 0.578767 0.843739 0.0849636
679 2 0.567536 0.819236 0.0872112
680 2 0.566223 0.832646 0.0825344
681 2 0.593711 0.847825 0.0893186
682 2 0.563325 0.818761 0.0787164
683 2 0.58438 0.860015 0.0859573
684 2 0.563984 0.85 0.0821186
685 1 0.559519 0.683308 0.0791813
686 1 0.567745 0.691437 0.087353
687 1 0.59355 0.680268 0.0906786
688 1 0.587829 0.695212 0.0846452
689 2 0.567198 0.686255 0.105115
690 2 0.594114 0.70361 0.0830941
691 2 0.561736 0.672679 0.0796156
692 2 0.591857 0.689624 0.0883728
693 2 0.577246 0.69569 0.085711
694 2 0.564738 0.687523 0.075427
695 2 0.591835 0.690734 0.0804804
696 2 0.562962 0.687226 0.0834409
697 1 0.570015 0.64987 0.0768891
698 1 0.566972 0.666082 0.0827018
699 1 0.580526 0.64903 0.0915096
700 1 0.584966 0.665716 0.085769
701 2 0.566358 0.647752 0.103039
702 2 0.588909 0.660471 0.0820085
703 2 0.540343 0.625731 0.0887301
704 2 0.581785 0.658365 0.089099
705 2 0.592586 0.672289 0.0874511
706 2 0.595084 0.655705 0.0703181
707 2 0.575991 0.670889 0.0844042
708 2 0.570446 0.656922 0.0806348
709 1 0.556307 0.612963 0.0900641
710 1 0.549949 0.632451 0.0893086
711 1 0.559725 0.614115 0.0996395
712 1 0.569675 0.632972 0.087899
713 2 0.557231 0.612872 0.0949616
714 2 0.570573 0.629372 0.0832904
715 2 0.566409 0.609422 0.0887317
716 2 0.560344 0.637655 0.0888227
717 2 0.576941 0.641007 0.0887289
718 2 0.56546 0.633305 0.069631
719 2 0.544745 0.641207 0.0871219
720 2 0.556012 0.622936 0.0882689
721 1 0.534361 0.892306 0.0913706
722 1 0.548724 0.904563 0.100214
723 1 0.578055 0.879607 0.0955115
724 1 0.560676 0.888894 0.0958669
725 2 0.564532 0.872729 0.110192
726 2 0.549615 0.911688 0.0964743
727 2 0.523991 0.8737 0.0896189
728 2 0.586375 0.884163 0.0932125
729 2 0.570973 0.887099 0.0970868
730 2 0.52549 0.890752 0.0888296
731 2 0.550313 0.903058 0.104941
732 2 0.539551 0.902246 0.0913214
733 1 0.514788 0.846728 0.0886499
734 1 0.526938 0.863469 0.0894212
735 1 0.566643 0.851589 0.10066
736 1 0.555756 0.869182 0.0990998
737 2 0.551667 0.836415 0.10919
738 2 0.572475 0.874229 0.0919758
739 2 0.523094 0.839593 0.0883451
740 2 0.563889 0.861871 0.099664
741 2 0.556907 0.8787 0.0966191
742 2 0.511234 0.844683 0.0840587
743 2 0.548118 0.862967 0.0970342
744 2 0.51858 0.856679 0.0890658
745 1 0.5247 0.829012 0.0892603
746 1 0.540367 0.835399 0.0933523
747 1 0.571858 0.822031 0.0915166
748 1 0.567188 0.843001 0.0925573
749 2 0.55998 0.828168 0.100731
750 2 0.560073 0.845329 0.0890982
751 2 0.530479 0.830501 0.0933412
752 2 0.576172 0.849147 0.0916452
753 2 0.563262 0.84607 0.0967789
754 2 0.531894 0.82427 0.0862375
755 2 0.56936 0.832526 0.0921841
756 2 0.543276 0.834294 0.0886837
757 1 0.539143 0.682803 0.0865174
758 1 0.549449 0.696585 0.0909854
759 1 0.556801 0.68575 0.103598
760 1 0.574957 0.679522 0.0947975
761 2 0.536978 0.678868 0.110917
762 2 0.570261 0.684633 0.0910578
763 2 0.547256 0.675834 0.0873159
764 2 0.551901 0.694551 0.10172
765 2 0.576257 0.685639 0.0988336
766 2 0.535489 0.68198 0.0819373
767 2 0.559554 0.697121 0.0894103
768 2 0.542893 0.692827 0.0875428
769 1 0.541172 0.650586 0.0854628
770 1 0.551467 0.666601 0.0891129
771 1 0.55607 0.650912 0.103245
772 1 0.55897 0.668743 0.0979476
773 2 0.53435 0.645086 0.109968
774 2 0.569172 0.671033 0.0963573
775 2 0.523881 0.639525 0.0903704
776 2 0.557166 0.661004 0.101317
777 2 0.55695 0.677993 0.100278
778 2 0.545137 0.652443 0.0809842
779 2 0.553616 0.667298 0.0938416
780 2 0.560368 0.664658 0.0864714
781 1 0.525747 0.617817 0.0969132
782 1 0.525711 0.638671 0.0951532
783 1 0.541321 0.61908 0.103297
784 1 0.545194 0.63672 0.0982836
785 2 0.550526 0.613766 0.10223
786 2 0.54955 0.632508 0.0943512
787 2 0.532822 0.616414 0.100552
788 2 0.543455 0.629283 0.101804
789 2 0.550749 0.64485 0.100109
790 2 0.530871 0.61458 0.0929094
791 2 0.53567 0.640265 0.0966946
792 2 0.523598 0.628567 0.0965233
793 1 0.495931 0.871012 0.0995378
794 1 0.533297 0.89319 0.10047
795 1 0.555244 0.876215 0.108287
796 1 0.546493 0.893875 0.106924
797 2 0.546666 0.872668 0.110638
798 2 0.537923 0.902997 0.10001
799 2 0.504838 0.864963 0.100283
800 2 0.554032 0.887007 0.108267
801 2 0.537064 0.894258 0.109341
802 2 0.497376 0.877289 0.0955565
803 2 0.541924 0.889107 0.102879
804 2 0.532114 0.890078 0.0959829
805 1 0.504484 0.84068 0.0968634
806 1 0.509136 0.856614 0.102764
807 1 0.543803 0.829186 0.108902
808 1 0.539987 0.855912 0.0963311
809 2 0.533952 0.84854 0.117218
810 2 0.53298 0.860492 0.0932436
811 2 0.511445 0.83383 0.0990887
812 2 0.53633 0.853527 0.100781
813 2 0.554586 0.872523 0.103708
814 2 0.483454 0.827728 0.0896108
815 2 0.519836 0.854515 0.102491
816 2 0.504045 0.848422 0.100327
817 1 0.490004 0.826633 0.0936473
818 1 0.517243 0.833795 0.103095
819 1 0.549531 0.824812 0.100365
820 1 0.529038 0.849213 0.10371
821 2 0.527776 0.820051 0.116492
822 2 0.541272 0.845789 0.094548
823 2 0.495287 0.835253 0.095776
824 2 0.54592 0.829056 0.0963433
825 2 0.543598 0.826735 0.104236
826 2 0.498158 0.820722 0.0918606
827 2 0.526658 0.838758 0.102616
828 2 0.499503 0.835032 0.0882087
829 1 0.510572 0.685157 0.096936
830 1 0.526258 0.69396 0.102331
831 1 0.528677 0.678691 0.107861
832 1 0.544791 0.697087 0.0982105
833 2 0.510794 0.671121 0.120671
834 2 0.546945 0.689629 0.0947033
835 2 0.506831 0.677243 0.099874
836 2 0.530436 0.684429 0.103867
837 2 0.54712 0.703992 0.0944959
838 2 0.515893 0.680452 0.0932164
839 2 0.534781 0.698064 0.0999312
840 2 0.517517 0.691455 0.0995642
841 1 0.517302 0.657076 0.0946693
842 1 0.504602 0.666875 0.100976
843 1 0.523749 0.644527 0.110769
844 1 0.51635 0.663685 0.108664
845 2 0.509664 0.651828 0.120446
846 2 0.524929 0.66906 0.106932
847 2 0.523764 0.665442 0.0934262
848 2 0.519113 0.65354 0.109089
849 2 0.515454 0.667608 0.113227
850 2 0.520484 0.647695 0.0966523
851 2 0.508372 0.665046 0.105492
852 2 0.509967 0.661228 0.097631
853 1 0.506379 0.615043 0.0998566
854 1 0.498052 0.634749 0.100577
855 1 0.505804 0.615198 0.109395
856 1 0.506152 0.636394 0.108691
857 2 0.496254 0.612388 0.111327
858 2 0.502163 0.639755 0.104466
859 2 0.506614 0.61217 0.104657
860 2 0.504397 0.625836 0.108832
861 2 0.516815 0.637398 0.108924
862 2 0.516162 0.613497 0.0979795
863 2 0.500354 0.639977 0.112532
864 2 0.504042 0.625843 0.0997521
865 1 0.493408 0.875695 0.108916
866 1 0.51156 0.88202 0.113027
867 1 0.536315 0.873283 0.111932
868 1 0.527699 0.888761 0.108331
869 2 0.499164 0.881709 0.123148
870 2 0.525726 0.891993 0.103745
871 2 0.492797 0.866175 0.111568
872 2 0.531076 0.878356 0.108361
873 2 0.518749 0.888487 0.110893
874 2 0.494318 0.874988 0.104086
875 2 0.514959 0.871529 0.112672
876 2 0.502016 0.880947 0.110752
877 1 0.476026 0.86647 0.0996929
878 1 0.494349 0.857952 0.114779
879 1 0.529955 0.84442 0.121348
880 1 0.512322 0.861045 0.112136
881 2 0.525919 0.832757 0.130525
882 2 0.508468 0.859339 0.107564
883 2 0.492744 0.848524 0.112544
884 2 0.512778 0.84002 0.106755
885 2 0.520034 0.853924 0.113045
886 2 0.46831 0.859391 0.0979841
887 2 0.504849 0.859206 0.115496
888 2 0.486658 0.865151 0.0988826
889 1 0.472762 0.840796 0.105599