ITEM: TIMESTEP
20000
ITEM: NUMBER OF ATOMS
7800
ITEM: BOX BOUNDS pp pp pp
-5.5653172890315616e+01 6.1653172890457014e+01
-5.8653172890386671e+01 5.8653172890386671e+01
2.8284036172331355e+00 1.3883001938276627e+02
ITEM: ATOMS id type xs ys zs
1 1 0.481271 0.53904 0.00904083
2 1 0.499008 0.517831 0.00915353
3 1 0.493919 0.524708 0.0551714
4 1 0.500497 0.51218 0.0412495
5 2 0.521671 0.529083 0.0507794
6 2 0.495612 0.508574 0.0168406
7 2 0.482395 0.546026 0.0187543
8 2 0.49382 0.511481 0.0517096
9 2 0.499345 0.526249 0.0434853
10 2 0.468301 0.542077 0.00585052
11 2 0.496346 0.508156 0.0315038
12 2 0.488123 0.527497 0.0095309
13 1 0.500996 0.567834 0.0129534
14 1 0.48982 0.553453 0.0264901
15 1 0.513027 0.558075 0.0476981
16 1 0.490902 0.546876 0.0484576
17 2 0.539686 0.571753 0.0547454
18 2 0.486799 0.560378 0.0496124
19 2 0.505969 0.57859 0.0195076
20 2 0.504767 0.548466 0.051375
21 2 0.486481 0.536044 0.05493
22 2 0.489388 0.571547 0.0076502
23 2 0.490171 0.546477 0.0365509
24 2 0.499614 0.556638 0.0196046
25 1 0.496442 0.610334 0.0134444
26 1 0.510334 0.591499 0.0217691
27 1 0.499972 0.594608 0.0438026
28 1 0.491213 0.57039 0.0422661
29 2 0.527562 0.607884 0.0545986
30 2 0.486705 0.566131 0.031485
31 2 0.498947 0.61726 0.024249
32 2 0.491704 0.583629 0.0447017
33 2 0.50531 0.56765 0.0430337
34 2 0.487641 0.614125 0.0046112
35 2 0.506459 0.593229 0.0331484
36 2 0.504225 0.599133 0.0141058
37 1 0.500303 0.649662 0.0083698
38 1 0.507186 0.628845 0.0204965
39 1 0.48794 0.637923 0.0358741
40 1 0.487997 0.612941 0.0318459
41 2 0.510418 0.652672 0.0498537
42 2 0.485169 0.605493 0.0219816
43 2 0.489449 0.671845 0.999865
44 2 0.482397 0.625096 0.0342824
45 2 0.492549 0.606 0.0410518
46 2 0.489579 0.64308 0.0023949
47 2 0.499467 0.636778 0.0285844
48 2 0.507608 0.639932 0.0130929
49 1 0.498514 0.702605 0.99704
50 1 0.496786 0.679109 0.00781978
51 1 0.476593 0.682203 0.0229574
52 1 0.479356 0.655606 0.0218003
53 2 0.500725 0.690933 0.037469
54 2 0.492392 0.656403 0.0163874
55 2 0.476811 0.705929 0.00501308
56 2 0.4745 0.668502 0.0223676
57 2 0.481057 0.648168 0.031989
58 2 0.490795 0.701986 0.987525
59 2 0.48742 0.683599 0.0155191
60 2 0.500959 0.690852 0.00260021
61 1 0.489276 0.738939 0.991087
62 1 0.482553 0.718766 0.00487313
63 1 0.462791 0.723144 0.018437
64 1 0.465188 0.699799 0.00923696
65 2 0.484394 0.730376 0.0356155
66 2 0.461404 0.692497 0.999541
67 2 0.477601 0.747103 0.992805
68 2 0.458339 0.711166 0.0130163
69 2 0.468188 0.691626 0.0183297
70 2 0.490095 0.739911 0.97921
71 2 0.474557 0.725295 0.0125304
72 2 0.48574 0.727393 0.996317
73 1 0.47724 0.781062 0.996005
74 1 0.47248 0.755419 0.000572894
75 1 0.446582 0.766584 0.0319538
76 1 0.457545 0.748967 0.0182125
77 2 0.449423 0.759174 0.0421655
78 2 0.456534 0.73539 0.0190806
79 2 0.477158 0.788506 0.00627548
80 2 0.448044 0.756043 0.0243186
81 2 0.469587 0.75289 0.0231298
82 2 0.470027 0.788552 0.988315
83 2 0.460885 0.752331 0.00649971
84 2 0.473156 0.768491 0.997151
85 1 0.471409 0.801842 0.987758
86 1 0.470106 0.799475 0.00945976
87 1 0.439244 0.80614 0.0362698
88 1 0.447346 0.787942 0.0193134
89 2 0.451345 0.807952 0.0429512
90 2 0.439248 0.782627 0.0119945
91 2 0.521136 0.795998 0.994239
92 2 0.443807 0.797902 0.0267591
93 2 0.452411 0.777559 0.0262328
94 2 0.469564 0.809916 0.978179
95 2 0.458636 0.793636 0.0132847
96 2 0.47004 0.805642 0.998728
97 1 0.520718 0.530548 0.0188545
98 1 0.543498 0.536415 0.0200881
99 1 0.522678 0.522412 0.0405721
100 1 0.547105 0.51195 0.042285
101 2 0.555384 0.532618 0.024022
102 2 0.510517 0.524398 0.0134422
103 2 0.522316 0.542797 0.0136328
104 2 0.536019 0.51821 0.0402993
105 2 0.547781 0.499526 0.045478
106 2 0.499447 0.550676 0.984197
107 2 0.557886 0.517523 0.03741
108 2 0.533978 0.526853 0.0179429
109 1 0.536456 0.574421 0.00535048
110 1 0.530798 0.550437 0.00699256
111 1 0.542685 0.577477 0.0442474
112 1 0.536608 0.553383 0.0379324
113 2 0.572917 0.569252 0.0389267
114 2 0.523356 0.553945 0.0406021
115 2 0.545273 0.582128 0.0119223
116 2 0.541713 0.565686 0.0371989
117 2 0.514426 0.511852 0.0423024
118 2 0.526178 0.579583 0.999716
119 2 0.539247 0.545424 0.0285107
120 2 0.531587 0.563046 0.0105106
121 1 0.544766 0.616637 0.00540531
122 1 0.550426 0.593292 0.0167136
123 1 0.532888 0.614821 0.0457998
124 1 0.531882 0.595408 0.0319042
125 2 0.569522 0.61619 0.0434925
126 2 0.523504 0.593171 0.0226361
127 2 0.548329 0.626247 0.0128392
128 2 0.530577 0.607835 0.0360392
129 2 0.533099 0.586505 0.0409122
130 2 0.531263 0.61921 0.00232516
131 2 0.544711 0.594554 0.0272413
132 2 0.545567 0.604198 0.0105855
133 1 0.540926 0.655151 0.00324691
134 1 0.546306 0.63765 0.0185514
135 1 0.519063 0.656575 0.0411378
136 1 0.527067 0.63398 0.0327113
137 2 0.554194 0.65864 0.0424527
138 2 0.519415 0.626509 0.024719
139 2 0.545277 0.666032 0.00809118
140 2 0.521292 0.645414 0.0340613
141 2 0.526799 0.627125 0.0434202
142 2 0.529629 0.659666 0.998253
143 2 0.539624 0.635324 0.0283609
144 2 0.538847 0.645888 0.0115304
145 1 0.535528 0.696489 0.998919
146 1 0.537823 0.676753 0.0122098
147 1 0.51086 0.697184 0.0316327
148 1 0.516398 0.673431 0.0241737
149 2 0.540472 0.695886 0.0463818
150 2 0.506654 0.673762 0.0154181
151 2 0.529914 0.706676 0.00522401
152 2 0.517402 0.68727 0.0265228
153 2 0.514494 0.666337 0.0341805
154 2 0.52942 0.697207 0.988391
155 2 0.528101 0.670502 0.018967
156 2 0.53265 0.684687 0.00358144
157 1 0.536449 0.743126 0.0033739
158 1 0.528767 0.71923 0.00986337
159 1 0.494006 0.734674 0.0282713
160 1 0.503786 0.716247 0.0159888
161 2 0.526186 0.736766 0.0442636
162 2 0.49584 0.711691 0.00625982
163 2 0.537428 0.746068 0.0146667
164 2 0.495563 0.725632 0.0192533
165 2 0.506345 0.706659 0.0241648
166 2 0.524987 0.747747 0.997739
167 2 0.515413 0.720827 0.0117114
168 2 0.534135 0.729191 0.00325184
169 1 0.537576 0.777916 0.010524
170 1 0.544304 0.755134 0.0218661
171 1 0.494248 0.778643 0.0259375
172 1 0.482704 0.756174 0.0200648
173 2 0.507499 0.773345 0.0511962
174 2 0.482744 0.754685 0.00885486
175 2 0.529328 0.782936 0.0190571
176 2 0.486706 0.769444 0.0209399
177 2 0.490771 0.746843 0.0248512
178 2 0.53202 0.777873 0.999703
179 2 0.538755 0.75772 0.0324606
180 2 0.54198 0.766115 0.0150682
181 1 0.52033 0.81244 0.0197313
182 1 0.519027 0.786881 0.0258958
183 1 0.45996 0.797244 0.0444867
184 1 0.48057 0.801983 0.0299319
185 2 0.488196 0.809519 0.0373444
186 2 0.47572 0.805508 0.0193916
187 2 0.534633 0.806055 0.00685592
188 2 0.469749 0.797669 0.0361821
189 2 0.488942 0.791084 0.0278529
190 2 0.516201 0.812553 0.00869448
191 2 0.507177 0.780401 0.0228319
192 2 0.518533 0.800529 0.0243646
193 1 0.569293 0.525455 0.00880804
194 1 0.584969 0.519576 0.991205
195 1 0.588048 0.538081 0.0372806
196 1 0.565562 0.524442 0.0296873
197 2 0.620692 0.559711 0.0407457
198 2 0.556475 0.526051 0.004209
199 2 0.572014 0.539154 0.00893343
200 2 0.575718 0.532146 0.0344915
201 2 0.542063 0.54858 0.0486874
202 2 0.543473 0.542817 0.00885347
203 2 0.570489 0.519965 0.0195105
204 2 0.577126 0.520204 0.000701989
205 1 0.57715 0.571642 0.996267
206 1 0.578447 0.551251 0.0111143
207 1 0.59023 0.58662 0.0306545
208 1 0.581543 0.562932 0.0314
209 2 0.617522 0.601083 0.041342
210 2 0.575054 0.557958 0.0214722
211 2 0.582323 0.581336 0.00376775
212 2 0.58952 0.573522 0.0282176
213 2 0.585859 0.55149 0.036691
214 2 0.564517 0.574927 0.992939
215 2 0.591218 0.546376 0.0136512
216 2 0.57662 0.560143 0.0022849
217 1 0.589141 0.61384 0.996526
218 1 0.591766 0.590502 0.00845728
219 1 0.577241 0.62222 0.0352987
220 1 0.575954 0.599987 0.0239808
221 2 0.608911 0.631448 0.0477415
222 2 0.564856 0.596734 0.0185217
223 2 0.589155 0.625314 0.00373604
224 2 0.579368 0.612979 0.0267884
225 2 0.577889 0.592432 0.0330723
226 2 0.576083 0.613266 0.992212
227 2 0.588481 0.593896 0.0198186
228 2 0.589683 0.602256 0.00270482
229 1 0.584103 0.661328 0.00116152
230 1 0.590401 0.636968 0.00980532
231 1 0.564753 0.664491 0.036651
232 1 0.570386 0.643668 0.0249054
233 2 0.601563 0.674896 0.036163
234 2 0.557992 0.64433 0.0199318
235 2 0.581245 0.670226 0.0100159
236 2 0.572585 0.655506 0.0307237
237 2 0.569217 0.632366 0.0319749
238 2 0.572333 0.656903 0.995956
239 2 0.579968 0.639148 0.0171833
240 2 0.590093 0.649241 0.00384851
241 1 0.580147 0.704568 0.00845137
242 1 0.581165 0.682324 0.0153433
243 1 0.551112 0.702706 0.0415861
244 1 0.55773 0.685841 0.0248175
245 2 0.567924 0.728237 0.0538121
246 2 0.545752 0.684698 0.0188095
247 2 0.575929 0.709827 0.0186703
248 2 0.557986 0.695165 0.0335182
249 2 0.559221 0.673329 0.0294431
250 2 0.56994 0.702833 0.00111083
251 2 0.568276 0.685938 0.0170561
252 2 0.587313 0.692067 0.00855398
253 1 0.581291 0.741657 0.0082661
254 1 0.571019 0.72206 0.0212056
255 1 0.539709 0.737761 0.0432836
256 1 0.545512 0.722044 0.0268793
257 2 0.565407 0.748496 0.0520625
258 2 0.535692 0.719515 0.0201179
259 2 0.605657 0.757521 0.0205013
260 2 0.543011 0.733347 0.0327582
261 2 0.545071 0.712384 0.0353468
262 2 0.572814 0.749363 0.00195744
263 2 0.557772 0.721921 0.0218027
264 2 0.574557 0.730761 0.0127861
265 1 0.584854 0.779056 0.0113672
266 1 0.592301 0.758979 0.0240174
267 1 0.519535 0.777933 0.0486315
268 1 0.540992 0.762867 0.0429741
269 2 0.550283 0.773145 0.0423119
270 2 0.557073 0.75244 0.0233083
271 2 0.566257 0.798387 0.00434722
272 2 0.529467 0.767767 0.0479279
273 2 0.544516 0.750407 0.0484657
274 2 0.571182 0.778208 0.00834015
275 2 0.58677 0.748485 0.0171607
276 2 0.586657 0.770745 0.0201154
277 1 0.58278 0.815587 0.0247824
278 1 0.579179 0.803165 0.00634617
279 1 0.497876 0.811242 0.0464618
280 1 0.518939 0.826349 0.0394525
281 2 0.518174 0.838466 0.0422757
282 2 0.520221 0.823095 0.0274109
283 2 0.593894 0.808954 0.02671
284 2 0.509085 0.817791 0.0429728
285 2 0.521027 0.783672 0.0373645
286 2 0.551579 0.818688 0.00572345
287 2 0.530922 0.820207 0.0431874
288 2 0.586974 0.828106 0.028417
289 1 0.614917 0.552207 0.99346
290 1 0.608539 0.52716 0.999373
291 1 0.631866 0.558524 0.0330886
292 1 0.601941 0.540498 0.0182772
293 2 0.677615 0.575016 0.0414024
294 2 0.598271 0.520297 0.994128
295 2 0.612487 0.548941 0.0168556
296 2 0.631669 0.552104 0.0227259
297 2 0.597315 0.536114 0.0286736
298 2 0.578743 0.503151 0.964561
299 2 0.605496 0.529088 0.0115716
300 2 0.610952 0.539218 0.994544
301 1 0.60915 0.575823 0.999261
302 1 0.624264 0.555442 0.0133299
303 1 0.624735 0.600622 0.0313462
304 1 0.629165 0.579555 0.0212405
305 2 0.65049 0.610393 0.043113
306 2 0.623446 0.569054 0.014987
307 2 0.637848 0.586603 0.0136689
308 2 0.621369 0.5888 0.0257033
309 2 0.635112 0.571238 0.0293737
310 2 0.602546 0.58252 0.00887531
311 2 0.624911 0.553008 0.0016426
312 2 0.606692 0.562497 0.997899
313 1 0.624968 0.592367 0.993193
314 1 0.636292 0.597883 0.00701113
315 1 0.621434 0.63214 0.0426392
316 1 0.632594 0.620092 0.0170988
317 2 0.64184 0.659004 0.0453638
318 2 0.622377 0.597263 0.00441047
319 2 0.62367 0.625859 0.009063
320 2 0.639407 0.628637 0.0227729
321 2 0.625011 0.610754 0.0241105
322 2 0.618488 0.600752 0.986113
323 2 0.639508 0.609955 0.0113021
324 2 0.638047 0.595762 0.995373
325 1 0.622413 0.656165 0.00486175
326 1 0.621564 0.632726 0.998774
327 1 0.610409 0.664947 0.0332918
328 1 0.611119 0.642337 0.0231499
329 2 0.625196 0.69829 0.0582589
330 2 0.601862 0.636023 0.0164467
331 2 0.618412 0.649509 0.0146596
332 2 0.604957 0.652802 0.0297626
333 2 0.618252 0.635897 0.0315604
334 2 0.607943 0.636201 0.994422
335 2 0.626996 0.645006 0.999032
336 2 0.611887 0.660763 0.998117
337 1 0.613844 0.700928 0.0226065
338 1 0.620388 0.677957 0.0147924
339 1 0.591192 0.711156 0.0543464
340 1 0.596017 0.686888 0.0347977
341 2 0.599792 0.736981 0.073892
342 2 0.587973 0.684336 0.0253264
343 2 0.605262 0.696018 0.0312874
344 2 0.587532 0.688477 0.0440295
345 2 0.616572 0.670508 0.0236089
346 2 0.608254 0.681464 0.00843477
347 2 0.622534 0.690882 0.0194216
348 2 0.605931 0.701152 0.0130247
349 1 0.615868 0.750847 0.0147263
350 1 0.609717 0.726401 0.0212776
351 1 0.576365 0.739265 0.0536961
352 1 0.589286 0.726931 0.0373229
353 2 0.596424 0.778164 0.0436554
354 2 0.577506 0.72528 0.0312235
355 2 0.625803 0.76008 0.014714
356 2 0.586257 0.73542 0.0459772
357 2 0.591944 0.715082 0.0436428
358 2 0.60412 0.724976 0.0109804
359 2 0.599428 0.729168 0.0294636
360 2 0.616868 0.738124 0.0200456
361 1 0.605221 0.786744 0.0388768
362 1 0.617736 0.789435 0.0249225
363 1 0.561356 0.780649 0.0442603
364 1 0.586309 0.769351 0.0436251
365 2 0.561821 0.781944 0.0561895
366 2 0.589434 0.759875 0.0352807
367 2 0.603451 0.799669 0.0412071
368 2 0.573877 0.77486 0.0416569
369 2 0.585055 0.766389 0.0550707
370 2 0.585548 0.792998 0.0118159
371 2 0.615094 0.802696 0.026097
372 2 0.619103 0.785528 0.036616
373 1 0.597894 0.833427 0.0330381
374 1 0.60539 0.808891 0.0327377
375 1 0.544203 0.813157 0.0140514
376 1 0.559038 0.805619 0.0337594
377 2 0.556191 0.797584 0.106229
378 2 0.571732 0.811509 0.0317016
379 2 0.600774 0.845673 0.0336432
380 2 0.551372 0.807634 0.0233917
381 2 0.559566 0.792574 0.0379141
382 2 0.585844 0.797977 0.974311
383 2 0.578551 0.814062 0.0137303
384 2 0.605613 0.822584 0.0358023
385 2 0.432778 0.817199 0.034539
386 3 0.430322 0.824637 0.0360204
387 3 0.528389 0.822464 0.0249357
388 2 0.61679 0.520012 0.00560023
389 3 0.611263 0.522785 0.0104617
390 3 0.495559 0.507632 0.024181
391 1 0.517783 0.528209 0.0623683
392 1 0.541058 0.518916 0.064541
393 1 0.553189 0.52335 0.10037
394 1 0.560829 0.516544 0.0802008
395 2 0.573709 0.533629 0.115974
396 2 0.549958 0.516934 0.0732532
397 2 0.52087 0.539024 0.0691208
398 2 0.556463 0.514912 0.0907754
399 2 0.572172 0.511063 0.0758635
400 2 0.504431 0.525345 0.0629911
401 2 0.546359 0.511816 0.0549771
402 2 0.527588 0.519263 0.0656486
403 1 0.531335 0.567295 0.0625193
404 1 0.528068 0.547435 0.0759006
405 1 0.550079 0.562681 0.0955654
406 1 0.537598 0.541878 0.0964921
407 2 0.575198 0.567834 0.114359
408 2 0.526487 0.549799 0.0992184
409 2 0.529599 0.576114 0.0709298
410 2 0.547247 0.550745 0.100223
411 2 0.541334 0.529568 0.0995683
412 2 0.520512 0.562581 0.0566684
413 2 0.536045 0.541524 0.0841387
414 2 0.535806 0.553899 0.0670144
415 1 0.516678 0.603722 0.060187
416 1 0.529556 0.588356 0.0764889
417 1 0.520585 0.586833 0.0984786
418 1 0.524288 0.562171 0.0937063
419 2 0.545084 0.608226 0.103119
420 2 0.521808 0.557204 0.0827755
421 2 0.510755 0.614783 0.0646695
422 2 0.518436 0.573119 0.0986237
423 2 0.537773 0.567053 0.0926482
424 2 0.509103 0.596273 0.0524824
425 2 0.523437 0.588111 0.0865573
426 2 0.521251 0.595823 0.0691011
427 1 0.50054 0.644937 0.05532
428 1 0.509136 0.626368 0.0711076
429 1 0.496485 0.621112 0.0901488
430 1 0.49905 0.601246 0.105151
431 2 0.520444 0.643968 0.0944701
432 2 0.490249 0.591997 0.108082
433 2 0.491507 0.654902 0.0598658
434 2 0.495417 0.609108 0.0953807
435 2 0.511042 0.595232 0.102277
436 2 0.493339 0.639252 0.0469016
437 2 0.499074 0.623509 0.0787864
438 2 0.50633 0.636932 0.0637285
439 1 0.489717 0.685366 0.0431455
440 1 0.492179 0.668657 0.0600931
441 1 0.471208 0.653438 0.0790599
442 1 0.474147 0.636023 0.0952434
443 2 0.495357 0.675013 0.0873087
444 2 0.463826 0.633729 0.10334
445 2 0.485094 0.694536 0.0511479
446 2 0.469865 0.642071 0.0854965
447 2 0.48564 0.628538 0.0936312
448 2 0.480559 0.683723 0.0344965
449 2 0.480861 0.674671 0.0658707
450 2 0.493289 0.673914 0.0490314
451 1 0.473483 0.72369 0.0393952
452 1 0.477788 0.705076 0.055415
453 1 0.457328 0.694489 0.0669797
454 1 0.468326 0.671122 0.0693811
455 2 0.474072 0.7122 0.0883851
456 2 0.467996 0.656887 0.0677775
457 2 0.46405 0.730115 0.0453067
458 2 0.459741 0.680784 0.0659327
459 2 0.466185 0.66642 0.0806141
460 2 0.467505 0.719665 0.0291397
461 2 0.465512 0.701148 0.058844
462 2 0.477832 0.713534 0.0463344
463 1 0.446313 0.755473 0.0530671
464 1 0.457691 0.731406 0.0560202
465 1 0.422598 0.72854 0.0754102
466 1 0.443002 0.714743 0.0676198
467 2 0.421104 0.72487 0.0864341
468 2 0.445704 0.701589 0.0663818
469 2 0.447815 0.766396 0.0599827
470 2 0.429979 0.718485 0.0696963
471 2 0.450995 0.718589 0.0766091
472 2 0.435885 0.774382 0.0373477
473 2 0.447888 0.721795 0.0580063
474 2 0.452304 0.74401 0.0559635
475 1 0.437197 0.784388 0.0450248
476 1 0.437998 0.774493 0.0657261
477 1 0.403754 0.744404 0.0716793
478 1 0.425351 0.75188 0.0651863
479 2 0.411764 0.767557 0.0957782
480 2 0.432686 0.752031 0.0549434
481 2 0.451007 0.786723 0.0454666
482 2 0.412049 0.751596 0.0648266
483 2 0.427803 0.74079 0.0720582
484 2 0.432028 0.796693 0.0418957
485 2 0.429651 0.764179 0.0694497
486 2 0.43403 0.781474 0.0564021
487 1 0.545527 0.54614 0.0598291
488 1 0.588883 0.538452 0.059252
489 1 0.574443 0.534712 0.0922113
490 1 0.580741 0.521495 0.0761298
491 2 0.609853 0.57239 0.0893289
492 2 0.544037 0.532659 0.0615407
493 2 0.557435 0.550635 0.0639346
494 2 0.569538 0.528832 0.0811298
495 2 0.586401 0.524279 0.0861237
496 2 0.520046 0.529241 0.0306794
497 2 0.585129 0.527719 0.0663208
498 2 0.591815 0.535052 0.0483409
499 1 0.568329 0.576478 0.0480202
500 1 0.569622 0.556469 0.0631319
501 1 0.567709 0.580264 0.0967808
502 1 0.572515 0.559625 0.085542
503 2 0.595629 0.599551 0.104207
504 2 0.558778 0.560361 0.087224
505 2 0.574204 0.586736 0.054517
506 2 0.575954 0.570646 0.0918212
507 2 0.562832 0.533072 0.0973203
508 2 0.55597 0.5812 0.0446999
509 2 0.574014 0.560008 0.0740987
510 2 0.567253 0.567254 0.056322
511 1 0.55913 0.617474 0.051149
512 1 0.570852 0.597143 0.0622056
513 1 0.55006 0.61637 0.0943975
514 1 0.5555 0.595578 0.0806737
515 2 0.580593 0.632941 0.0987273
516 2 0.542612 0.591851 0.0776748
517 2 0.55933 0.629432 0.0569801
518 2 0.555297 0.607365 0.0859347
519 2 0.559493 0.58549 0.0892032
520 2 0.546256 0.615824 0.0466855
521 2 0.56471 0.594174 0.0721669
522 2 0.56067 0.605741 0.057467
523 1 0.543875 0.65891 0.0506489
524 1 0.552892 0.638138 0.0638547
525 1 0.526866 0.653816 0.0876292
526 1 0.535159 0.631264 0.079345
527 2 0.555723 0.667314 0.0952417
528 2 0.521759 0.628402 0.0757363
529 2 0.54366 0.671048 0.0558452
530 2 0.534816 0.645081 0.0815953
531 2 0.540369 0.623758 0.0885605
532 2 0.531848 0.657777 0.0455375
533 2 0.544062 0.630769 0.0701143
534 2 0.546498 0.648281 0.0581107
535 1 0.527157 0.697571 0.0493755
536 1 0.53458 0.678773 0.0611133
537 1 0.502364 0.686206 0.0852533
538 1 0.514801 0.669495 0.0736205
539 2 0.527341 0.69849 0.0954786
540 2 0.504132 0.670269 0.0663551
541 2 0.525831 0.708499 0.0574266
542 2 0.513365 0.681407 0.0798321
543 2 0.51659 0.659246 0.0811544
544 2 0.519183 0.701697 0.0404411
545 2 0.526965 0.669707 0.0678123
546 2 0.524982 0.685704 0.0550632
547 1 0.512544 0.734213 0.0436416
548 1 0.51607 0.717231 0.0600813
549 1 0.482432 0.722862 0.0870104
550 1 0.494724 0.708211 0.0729194
551 2 0.502576 0.739656 0.101372
552 2 0.484411 0.70858 0.0651087
553 2 0.505244 0.743818 0.0498328
554 2 0.492752 0.717566 0.0810197
555 2 0.496471 0.696236 0.0791424
556 2 0.50678 0.733059 0.0332928
557 2 0.505831 0.711464 0.065976
558 2 0.51127 0.723143 0.0502073
559 1 0.494275 0.771828 0.048215
560 1 0.497227 0.74891 0.058324
561 1 0.464212 0.7585 0.0805584
562 1 0.476397 0.73927 0.0699876
563 2 0.468966 0.76345 0.103074
564 2 0.467956 0.731722 0.0633702
565 2 0.495191 0.770884 0.0756955
566 2 0.469414 0.750844 0.0720199
567 2 0.478816 0.733337 0.080307
568 2 0.494641 0.771942 0.0369094
569 2 0.487709 0.741067 0.0639294
570 2 0.490726 0.759887 0.0529217
571 1 0.479113 0.789061 0.0590316
572 1 0.483259 0.776732 0.0777813
573 1 0.425743 0.766598 0.0981529
574 1 0.446544 0.776698 0.0856976
575 2 0.455839 0.782782 0.0928027
576 2 0.441737 0.78206 0.0752315
577 2 0.484399 0.780641 0.0511121
578 2 0.435192 0.773608 0.0921107
579 2 0.452336 0.765502 0.0807164
580 2 0.468938 0.796857 0.0545696
581 2 0.47435 0.767344 0.0826342
582 2 0.475829 0.781017 0.0681636
583 1 0.609862 0.553261 0.0673984
584 1 0.627889 0.556678 0.0509215
585 1 0.636873 0.571892 0.0962104
586 1 0.614074 0.559722 0.0896934
587 2 0.670079 0.614572 0.0882451
588 2 0.599365 0.544865 0.0642709
589 2 0.605591 0.566642 0.0651773
590 2 0.627721 0.561526 0.0933399
591 2 0.605954 0.553874 0.0975413
592 2 0.578499 0.547366 0.0595433
593 2 0.613212 0.553877 0.0791506
594 2 0.620351 0.551748 0.0597714
595 1 0.607357 0.59515 0.0476734
596 1 0.605774 0.580046 0.0665955
597 1 0.606133 0.605199 0.0981961
598 1 0.616204 0.584441 0.0867042
599 2 0.615378 0.626894 0.0794932
600 2 0.594633 0.584932 0.0709479
601 2 0.600292 0.605228 0.0542449
602 2 0.610955 0.595596 0.0911834
603 2 0.628305 0.582067 0.0923832
604 2 0.599013 0.590429 0.0390252
605 2 0.616298 0.583211 0.0747121
606 2 0.609063 0.586012 0.0560295
607 1 0.595417 0.63324 0.0496818
608 1 0.593404 0.611881 0.0625687
609 1 0.587048 0.640883 0.0908931
610 1 0.60252 0.622562 0.0815096
611 2 0.618133 0.659246 0.0898037
612 2 0.580901 0.605969 0.063488
613 2 0.593516 0.646411 0.0536045
614 2 0.593981 0.632871 0.0833188
615 2 0.602677 0.615697 0.092161
616 2 0.588953 0.628602 0.0395792
617 2 0.599118 0.613827 0.0730978
618 2 0.591198 0.62462 0.0583142
619 1 0.581637 0.678718 0.0508184
620 1 0.593652 0.657467 0.0609966
621 1 0.562822 0.674264 0.0871514
622 1 0.571961 0.65314 0.0751108
623 2 0.599589 0.698051 0.0876422
624 2 0.562779 0.644369 0.070516
625 2 0.575227 0.684952 0.0603635
626 2 0.56663 0.664968 0.0786447
627 2 0.577551 0.648211 0.0852948
628 2 0.572606 0.671186 0.0448834
629 2 0.582988 0.655394 0.0681458
630 2 0.590388 0.669349 0.0553448
631 1 0.556442 0.721154 0.0553119
632 1 0.574245 0.696679 0.0661992
633 1 0.533988 0.70868 0.0896915
634 1 0.549381 0.693425 0.0757881
635 2 0.552949 0.734457 0.10559
636 2 0.539937 0.687954 0.0684423
637 2 0.553106 0.721431 0.06634
638 2 0.543788 0.702846 0.0831151
639 2 0.553833 0.682972 0.082416
640 2 0.557746 0.709287 0.0500486
641 2 0.560867 0.696918 0.0695683
642 2 0.57961 0.705422 0.0583436
643 1 0.554057 0.750995 0.0582002
644 1 0.549998 0.731056 0.0745317
645 1 0.510097 0.745104 0.0925464
646 1 0.523894 0.727145 0.0788256
647 2 0.542084 0.751987 0.101309
648 2 0.520393 0.726898 0.0673429
649 2 0.552488 0.763544 0.062639
650 2 0.516536 0.735177 0.08607
651 2 0.524525 0.714796 0.0832823
652 2 0.546803 0.729754 0.050708
653 2 0.53741 0.730554 0.0784931
654 2 0.552632 0.742346 0.06719
655 1 0.534649 0.79346 0.0619595
656 1 0.555716 0.776039 0.0666777
657 1 0.47852 0.771744 0.105894
658 1 0.505085 0.761357 0.0764681
659 2 0.512466 0.776591 0.0955288
660 2 0.504811 0.753823 0.0671793
661 2 0.539585 0.802313 0.0535459
662 2 0.49036 0.770219 0.100462
663 2 0.502894 0.752272 0.085026
664 2 0.524406 0.786453 0.0571218
665 2 0.554254 0.77607 0.0799744
666 2 0.544028 0.784957 0.0659827
667 1 0.541004 0.81705 0.0704407
668 1 0.541618 0.814865 0.0487308
669 1 0.463032 0.792017 0.0988266
670 1 0.481719 0.801641 0.086566
671 2 0.486194 0.809398 0.0772574
672 2 0.490214 0.797096 0.0625565
673 2 0.536989 0.82359 0.0796961
674 2 0.468761 0.799399 0.0902439
675 2 0.485515 0.788499 0.0833707
676 2 0.494204 0.816974 0.0572261
677 2 0.487591 0.803305 0.0971137
678 2 0.542086 0.82068 0.0595532
679 1 0.666756 0.580838 0.0452358
680 1 0.645942 0.575984 0.0549772
681 1 0.662534 0.607619 0.0809638
682 1 0.658431 0.583964 0.0880141
683 2 0.682999 0.620833 0.102078
684 2 0.634464 0.568468 0.0545275
685 2 0.643956 0.589077 0.05033
686 2 0.65557 0.597455 0.0870903
687 2 0.648397 0.575251 0.0911549
688 2 0.63695 0.551907 0.0426717
689 2 0.661042 0.581537 0.0766491
690 2 0.656568 0.571925 0.0484291
691 1 0.648534 0.596913 0.0408957
692 1 0.66143 0.59056 0.0666699
693 1 0.628652 0.624098 0.080227
694 1 0.644446 0.612084 0.0686566
695 2 0.670595 0.657601 0.0916119
696 2 0.650698 0.600218 0.0670861
697 2 0.643883 0.619183 0.0588091
698 2 0.632402 0.613321 0.074036
699 2 0.669593 0.600131 0.0726436
700 2 0.63795 0.59708 0.0337705
701 2 0.666798 0.587537 0.0563181
702 2 0.660295 0.589979 0.0385909
703 1 0.641579 0.646365 0.0502771
704 1 0.643717 0.621913 0.047076
705 1 0.628972 0.665297 0.0849217
706 1 0.64304 0.646142 0.0731717
707 2 0.640716 0.692593 0.0967092
708 2 0.630812 0.622013 0.0434441
709 2 0.643551 0.648048 0.0615086
710 2 0.63647 0.656748 0.0787116
711 2 0.63633 0.634464 0.0757008
712 2 0.628736 0.642026 0.0487843
713 2 0.655904 0.64583 0.0787135
714 2 0.648318 0.635566 0.0466973
715 1 0.625658 0.685814 0.0553841
716 1 0.632275 0.668804 0.0456351
717 1 0.610592 0.690999 0.0840509
718 1 0.612063 0.673094 0.070071
719 2 0.614345 0.726752 0.111042
720 2 0.60527 0.661389 0.0667988
721 2 0.614187 0.680367 0.0608035
722 2 0.604602 0.679788 0.0785156
723 2 0.623482 0.673605 0.0763871
724 2 0.619993 0.663536 0.04096
725 2 0.633772 0.674434 0.0570737
726 2 0.628499 0.682591 0.0438685
727 1 0.601429 0.723789 0.071537
728 1 0.615018 0.705136 0.0642825
729 1 0.579567 0.725297 0.108972
730 1 0.588893 0.705493 0.0848887
731 2 0.57794 0.756507 0.123693
732 2 0.581509 0.699459 0.0760849
733 2 0.595425 0.716364 0.0804947
734 2 0.581068 0.703646 0.0942951
735 2 0.615078 0.697715 0.0742596
736 2 0.602906 0.703871 0.0584602
737 2 0.613185 0.718071 0.0679335
738 2 0.593442 0.721098 0.0621916
739 1 0.584558 0.768483 0.066582
740 1 0.58868 0.744394 0.0741196
741 1 0.555146 0.747703 0.103727
742 1 0.570053 0.736111 0.0888677
743 2 0.550143 0.795536 0.0877405
744 2 0.560458 0.729965 0.0822465
745 2 0.58729 0.780374 0.0720615
746 2 0.563633 0.746728 0.094392
747 2 0.575879 0.72768 0.097554
748 2 0.581246 0.742343 0.0640347
749 2 0.57986 0.741481 0.0822162
750 2 0.589992 0.758411 0.0729106
751 1 0.55995 0.802215 0.0798245
752 1 0.575334 0.782101 0.0779988
753 1 0.520581 0.778506 0.0861816
754 1 0.547839 0.781271 0.0893753
755 2 0.518223 0.789979 0.0800004
756 2 0.571223 0.772016 0.0700857
757 2 0.56263 0.808875 0.0899579
758 2 0.534092 0.778714 0.0883257
759 2 0.550004 0.779265 0.101037
760 2 0.551484 0.809203 0.0736863
761 2 0.574787 0.781544 0.0893053
762 2 0.567996 0.793459 0.0746466
763 1 0.531674 0.820945 0.0905284
764 1 0.552489 0.805119 0.0969502
765 1 0.494707 0.809774 0.0679354
766 1 0.518932 0.803142 0.0769425
767 2 0.49611 0.80592 0.160777
768 2 0.523668 0.810229 0.0866091
769 2 0.525683 0.830252 0.0959969
770 2 0.507638 0.807685 0.0716397
771 2 0.531342 0.803723 0.0700211
772 2 0.533742 0.818946 0.0202929
773 2 0.551865 0.812698 0.0415055
774 2 0.541842 0.813953 0.0964872
775 2 0.39101 0.745845 0.0682541
776 3 0.383824 0.747095 0.0653925
777 3 0.495545 0.797447 0.0565287
778 2 0.651036 0.57786 0.0658019
779 3 0.655749 0.57776 0.0717748
780 3 0.547061 0.503747 0.051859
781 1 0.563237 0.524969 0.120119
782 1 0.586139 0.530406 0.111925
783 1 0.590404 0.53002 0.145756
784 1 0.584291 0.51288 0.128964
785 2 0.607982 0.548547 0.15186
786 2 0.589383 0.520037 0.119074
787 2 0.554437 0.534235 0.12447
788 2 0.588471 0.519376 0.138948
789 2 0.587469 0.500175 0.128876
790 2 0.557963 0.519449 0.110581
791 2 0.584186 0.527846 0.10006
792 2 0.5709 0.516751 0.127002
793 1 0.561684 0.567077 0.115328
794 1 0.555995 0.546632 0.129051
795 1 0.577221 0.568905 0.141979
796 1 0.57172 0.546164 0.147269
797 2 0.597331 0.587901 0.153511
798 2 0.559583 0.550603 0.152129
799 2 0.557264 0.577246 0.121433
800 2 0.579787 0.556797 0.147393
801 2 0.578465 0.535191 0.150122
802 2 0.558172 0.570806 0.103089
803 2 0.5671 0.545877 0.136061
804 2 0.557773 0.555435 0.120157
805 1 0.538243 0.599645 0.110364
806 1 0.552491 0.588302 0.127917
807 1 0.541783 0.583729 0.148854
808 1 0.551989 0.560279 0.14582
809 2 0.547751 0.609039 0.162425
810 2 0.547534 0.553026 0.137014
811 2 0.528998 0.607765 0.115663
812 2 0.543342 0.569943 0.14958
813 2 0.562954 0.568219 0.141269
814 2 0.533007 0.589582 0.103691
815 2 0.543649 0.586106 0.136775
816 2 0.546757 0.596042 0.11946
817 1 0.516336 0.633264 0.101036
818 1 0.528109 0.620759 0.117064
819 1 0.512748 0.612896 0.143395
820 1 0.518622 0.593816 0.156305
821 2 0.523884 0.642974 0.147054
822 2 0.510647 0.590677 0.165528
823 2 0.50749 0.639793 0.108504
824 2 0.51238 0.600125 0.146838
825 2 0.529544 0.587986 0.152491
826 2 0.507882 0.625975 0.0949889
827 2 0.517066 0.623973 0.123165
828 2 0.526865 0.627466 0.106937
829 1 0.489167 0.664434 0.09235
830 1 0.502436 0.652831 0.109646
831 1 0.486296 0.641277 0.124857
832 1 0.503486 0.620238 0.123507
833 2 0.490629 0.663555 0.141608
834 2 0.501835 0.611664 0.11406
835 2 0.479903 0.670561 0.0991329
836 2 0.493545 0.629619 0.123748
837 2 0.504536 0.614904 0.134518
838 2 0.483998 0.656948 0.0834602
839 2 0.49352 0.650798 0.118923
840 2 0.497857 0.657681 0.0994594
841 1 0.465112 0.701634 0.0883399
842 1 0.473002 0.680807 0.103506
843 1 0.453931 0.667508 0.115931
844 1 0.466826 0.644297 0.110754
845 2 0.460464 0.685931 0.140097
846 2 0.47675 0.646938 0.102673
847 2 0.453892 0.7046 0.0946003
848 2 0.458164 0.654852 0.112194
849 2 0.473475 0.640434 0.120004
850 2 0.462498 0.69638 0.0781953
851 2 0.462642 0.675813 0.11014
852 2 0.470374 0.690317 0.0952745
853 1 0.420898 0.719558 0.0977697
854 1 0.443728 0.705994 0.101805
855 1 0.422788 0.701299 0.12614
856 1 0.437811 0.68591 0.114177
857 2 0.419414 0.697643 0.136937
858 2 0.441296 0.672687 0.113578
859 2 0.419327 0.730438 0.104647
860 2 0.426543 0.69093 0.119188
861 2 0.447267 0.691655 0.121571
862 2 0.409183 0.731426 0.0720742
863 2 0.43914 0.692508 0.10411
864 2 0.431581 0.712499 0.100388
865 1 0.41022 0.753691 0.0931013
866 1 0.409418 0.737673 0.110089
867 1 0.393147 0.69165 0.122511
868 1 0.404198 0.713624 0.113126
869 2 0.386331 0.730189 0.148397
870 2 0.409555 0.712463 0.101919
871 2 0.423787 0.753465 0.0941349
872 2 0.394991 0.704443 0.11727
873 2 0.414794 0.709665 0.120154
874 2 0.405541 0.749693 0.0825591
875 2 0.402182 0.727016 0.114271
876 2 0.405148 0.746329 0.101917
877 1 0.602969 0.551707 0.108996
878 1 0.642405 0.568081 0.1193
879 1 0.604127 0.551126 0.140864
880 1 0.621432 0.555836 0.124645
881 2 0.637026 0.578466 0.125825
882 2 0.595523 0.540764 0.110959
883 2 0.582781 0.570089 0.131351
884 2 0.615578 0.549641 0.13365
885 2 0.615301 0.551973 0.114474
886 2 0.577162 0.547819 0.090398
887 2 0.634339 0.557538 0.122427
888 2 0.640961 0.570614 0.107632
889 1 0.585591 0.593289 0.110556
890 1 0.586984 0.570058 0.119746